<?xml version='1.0' encoding='utf-8'?>
<VTKFile type="UnstructuredGrid" version="0.1" byte_order="LittleEndian">
  <UnstructuredGrid>
    <Piece NumberOfPoints="16384" NumberOfCells="16129">
      <PointData>
        <DataArray type="Float64" Name="velocity_u" NumberOfComponents="1">0.0000000000000000e+00 0.0000000000000000e+00 0.0000000000000000e+00 0.0000000000000000e+00 0.0000000000000000e+00 0.0000000000000000e+00 0.0000000000000000e+00 0.0000000000000000e+00 0.0000000000000000e+00 0.0000000000000000e+00 0.0000000000000000e+00 0.0000000000000000e+00 0.0000000000000000e+00 0.0000000000000000e+00 0.0000000000000000e+00 0.0000000000000000e+00 0.0000000000000000e+00 0.0000000000000000e+00 0.0000000000000000e+00 0.0000000000000000e+00 0.0000000000000000e+00 0.0000000000000000e+00 0.0000000000000000e+00 0.0000000000000000e+00 0.0000000000000000e+00 0.0000000000000000e+00 0.0000000000000000e+00 0.0000000000000000e+00 0.0000000000000000e+00 0.0000000000000000e+00 0.0000000000000000e+00 0.0000000000000000e+00 0.0000000000000000e+00 0.0000000000000000e+00 0.0000000000000000e+00 0.0000000000000000e+00 0.0000000000000000e+00 0.0000000000000000e+00 0.0000000000000000e+00 0.0000000000000000e+00 0.0000000000000000e+00 0.0000000000000000e+00 0.0000000000000000e+00 0.0000000000000000e+00 0.0000000000000000e+00 0.0000000000000000e+00 0.0000000000000000e+00 0.0000000000000000e+00 0.0000000000000000e+00 0.0000000000000000e+00 0.0000000000000000e+00 0.0000000000000000e+00 0.0000000000000000e+00 0.0000000000000000e+00 0.0000000000000000e+00 0.0000000000000000e+00 0.0000000000000000e+00 0.0000000000000000e+00 0.0000000000000000e+00 0.0000000000000000e+00 0.0000000000000000e+00 0.0000000000000000e+00 0.0000000000000000e+00 0.0000000000000000e+00 0.0000000000000000e+00 0.0000000000000000e+00 0.0000000000000000e+00 0.0000000000000000e+00 0.0000000000000000e+00 0.0000000000000000e+00 0.0000000000000000e+00 0.0000000000000000e+00 0.0000000000000000e+00 0.0000000000000000e+00 0.0000000000000000e+00 0.0000000000000000e+00 0.0000000000000000e+00 0.0000000000000000e+00 0.0000000000000000e+00 0.0000000000000000e+00 0.0000000000000000e+00 0.0000000000000000e+00 0.0000000000000000e+00 0.0000000000000000e+00 0.0000000000000000e+00 0.0000000000000000e+00 0.0000000000000000e+00 0.0000000000000000e+00 0.0000000000000000e+00 0.0000000000000000e+00 0.0000000000000000e+00 0.0000000000000000e+00 0.0000000000000000e+00 0.0000000000000000e+00 0.0000000000000000e+00 0.0000000000000000e+00 0.0000000000000000e+00 0.0000000000000000e+00 0.0000000000000000e+00 0.0000000000000000e+00 0.0000000000000000e+00 0.0000000000000000e+00 0.0000000000000000e+00 0.0000000000000000e+00 0.0000000000000000e+00 0.0000000000000000e+00 0.0000000000000000e+00 0.0000000000000000e+00 0.0000000000000000e+00 0.0000000000000000e+00 0.0000000000000000e+00 0.0000000000000000e+00 0.0000000000000000e+00 0.0000000000000000e+00 0.0000000000000000e+00 0.0000000000000000e+00 0.0000000000000000e+00 0.0000000000000000e+00 0.0000000000000000e+00 0.0000000000000000e+00 0.0000000000000000e+00 0.0000000000000000e+00 0.0000000000000000e+00 0.0000000000000000e+00 0.0000000000000000e+00 0.0000000000000000e+00 0.0000000000000000e+00 1.0000000000000000e+00 0.0000000000000000e+00 -4.2037511167372245e-07 -4.4544967021114470e-07 -4.4907992694294767e-07 -4.5031151002592179e-07 -4.5150362988965646e-07 -4.5295016512580642e-07 -4.5468997076622002e-07 -4.5673091584252294e-07 -4.5907755623412275e-07 -4.6173456795913706e-07 -4.6470720436170706e-07 -4.6800137351156641e-07 -4.7162365460519668e-07 -4.7558131005828838e-07 -4.7988231430166132e-07 -4.8453539758619365e-07 -4.8955008863963570e-07 -4.9493674560915476e-07 -5.0070658296245059e-07 -5.0687171128498047e-07 -5.1344519546531053e-07 -5.2044111809778625e-07 -5.2787463206658584e-07 -5.3576200474561541e-07 -5.4412067440973412e-07 -5.5296933398858176e-07 -5.6232803234697819e-07 -5.7221826872977880e-07 -5.8266307135137926e-07 -5.9368707920109955e-07 -6.0531665236015015e-07 -6.1758001132951936e-07 -6.3050738145517393e-07 -6.4413112712399339e-07 -6.5848589182153121e-07 -6.7360877199995040e-07 -6.8953952635318028e-07 -7.0632079161529124e-07 -7.2399828656971934e-07 -7.4262102791082621e-07 -7.6224159924444778e-07 -7.8291647855149088e-07 -8.0470638536237020e-07 -8.2767661869623697e-07 -8.5189741176889170e-07 -8.7744435471944588e-07 -9.0439889492193023e-07 -9.3284887539948227e-07 -9.6288908980939953e-07 -9.9462189420062969e-07 -1.0281579273387506e-06 -1.0636169297131130e-06 -1.1011286099416879e-06 -1.1408335603625050e-06 -1.1828843001417293e-06 -1.2274465053189277e-06 -1.2747003918174858e-06 -1.3248421959150856e-06 -1.3780857913007738e-06 -1.4346645504568516e-06 -1.4948334908574296e-06 -1.5588716562062065e-06 -1.6270847335410495e-06 -1.6998080312729994e-06 -1.7774099337830407e-06 -1.8602958164534085e-06 -1.9489123911160167e-06 -2.0437526165103194e-06 -2.1453613950340250e-06 -2.2543421471144234e-06 -2.3713642629100793e-06 -2.4971715898585134e-06 -2.6325922787047354e-06 -2.7785502102828975e-06 -2.9360781171366932e-06 -3.1063327373680653e-06 -3.2906125920028946e-06 -3.4903788270716497e-06 -3.7072793984740603e-06 -3.9431773100520399e-06 -4.2001841540846245e-06 -4.4807000067497685e-06 -4.7874604310883994e-06 -5.1235921075763685e-06 -5.4926796957387954e-06 -5.8988464795235247e-06 -6.3468511864615448e-06 -6.8422048603810756e-06 -7.3913135188916470e-06 -8.0016528520743691e-06 -8.6819824086474946e-06 -9.4426102008027219e-06 -1.0295722168737864e-05 -1.1255794091076161e-05 -1.2340109622324177e-05 -1.3569417239386621e-05 -1.4968769218703421e-05 -1.6568600623191002e-05 -1.8406129196853099e-05 -2.0527188093301400e-05 -2.2988647042961004e-05 -2.5861643698147256e-05 -2.9235944631869017e-05 -3.3225899873479383e-05 -3.7978677019621349e-05 -4.3685808008857237e-05 -5.0599627433370797e-05 -5.9057063282589503e-05 -6.9514702341217559e-05 -8.2601521516418338e-05 -9.9199970983338679e-05 -1.2057379953130909e-04 -1.4857528623514064e-04 -1.8599201636183534e-04 -2.3714850067844525e-04 -3.0899400948071010e-04 -4.1316527930221260e-04 -5.7011431052651253e-04 -8.1786407724712294e-04 -1.2316008672073170e-03 -1.9684305322047223e-03 -3.3593593331086298e-03 -5.9759509863875331e-03 -9.4849539691252236e-03 -3.0787954774877391e-04 1.3884989125825373e-01 1.0000000000000000e+00 0.0000000000000000e+00 -8.6528191354420833e-07 -9.1543123697983477e-07 -9.2272238410346588e-07 -9.2523229810858063e-07 -9.2767858439319254e-07 -9.3064944023856706e-07 -9.3422281662131673e-07 -9.3841457932890674e-07 -9.4323401565769976e-07 -9.4869072886855050e-07 -9.5479551373159176e-07 -9.6156048433955523e-07 -9.6899911631189715e-07 -9.7712629677031212e-07 -9.8595839411707988e-07 -9.9551333519247577e-07 -1.0058106747690785e-06 -1.0168716580158931e-06 -1.0287192913858889e-06 -1.0413784341086417e-06 -1.0548759050473707e-06 -1.0692405900357142e-06 -1.0845035458856932e-06 -1.1006981162728959e-06 -1.1178600766812596e-06 -1.1360278051000437e-06 -1.1552424562660749e-06 -1.1755481252759786e-06 -1.1969920148696606e-06 -1.2196246360384194e-06 -1.2435000530167612e-06 -1.2686761532402798e-06 -1.2952149188974268e-06 -1.3231827049059439e-06 -1.3526505520913199e-06 -1.3836945508855856e-06 -1.4163962381797131e-06 -1.4508430056192601e-06 -1.4871285319953357e-06 -1.5253532798991008e-06 -1.5656250743838300e-06 -1.6080597344499856e-06 -1.6527817229878251e-06 -1.6999248315514566e-06 -1.7496329577843711e-06 -1.8020610065991376e-06 -1.8573758873265592e-06 -1.9157575736495625e-06 -1.9774002521454783e-06 -2.0425136220136372e-06 -2.1113243655360336e-06 -2.1840777535111726e-06 -2.2610393776143234e-06 -2.3424970825515669e-06 -2.4287631810789016e-06 -2.5201769498178655e-06 -2.6171073561326639e-06 -2.7199560453203960e-06 -2.8291607147474417e-06 -2.9451989684518102e-06 -3.0685926406630135e-06 -3.1999125880667945e-06 -3.3397840812856626e-06 -3.4888929693379831e-06 -3.6479926781886096e-06 -3.8179120521168317e-06 -3.9995641963135266e-06 -4.1939566218804307e-06 -4.4022029072351266e-06 -4.6255359581953540e-06 -4.8653230786103252e-06 -5.1230833188727802e-06 -5.4005075710293673e-06 -5.6994817059837613e-06 -6.0221131599278131e-06 -6.3707617804630423e-06 -6.7480759152024000e-06 -7.1570345560821688e-06 -7.6009964161714694e-06 -8.0837573818459808e-06 -8.6096183190084752e-06 -9.1834653444200766e-06 -9.8108648856423313e-06 -1.0498176642411368e-05 -1.1252688592682454e-05 -1.2082779015486664e-05 -1.2998111537197635e-05 -1.4009871009395029e-05 -1.5131050289858728e-05 -1.6376800481514312e-05 -1.7764860742572494e-05 -1.9316088874168478e-05 -2.1055119987309958e-05 -2.3011188650886925e-05 -2.5219161972770662e-05 -2.7720846831782539e-05 -3.0566655036387489e-05 -3.3817740511022217e-05 -3.7548765367915462e-05 -4.1851509787136973e-05 -4.6839625721334667e-05 -5.2654959792334613e-05 -5.9476051317865984e-05 -6.7529681812521545e-05 -7.7106765107754161e-05 -8.8584497690450461e-05 -1.0245767565197428e-04 -1.1938366258229519e-04 -1.4024805423799633e-04 -1.6626234320775375e-04 -1.9911213766205194e-04 -2.4118713872041780e-04 -2.9594677790140004e-04 -3.6851735865043309e-04 -4.6669647257493009e-04 -6.0269767373533848e-04 -7.9628668352628397e-04 -1.0806171282121144e-03 -1.5134036544204544e-03 -2.1983744947892863e-03 -3.3227025574881757e-03 -5.1880718315838632e-03 -7.9567653811650138e-03 -9.0853677038739544e-03 1.3763990768915119e-02 1.9206911835383958e-01 1.0000000000000000e+00 0.0000000000000000e+00 -1.3127030557997358e-06 -1.3878947843159333e-06 -1.3988439574358448e-06 -1.4026343063781490e-06 -1.4063382430185398e-06 -1.4108377063505318e-06 -1.4162497146423341e-06 -1.4225981821276577e-06 -1.4298971520729193e-06 -1.4381611477161427e-06 -1.4474064851628139e-06 -1.4576514680702683e-06 -1.4689164631128097e-06 -1.4812239858197767e-06 -1.4945988034993796e-06 -1.5090680387863724e-06 -1.5246612647953602e-06 -1.5414106017762724e-06 -1.5593508332526429e-06 -1.5785195473076732e-06 -1.5989572914262876e-06 -1.6207077286271920e-06 -1.6438178003986851e-06 -1.6683379152212596e-06 -1.6943221716114050e-06 -1.7218286014724532e-06 -1.7509194128646912e-06 -1.7816612331845627e-06 -1.8141253799960055e-06 -1.8483881840912287e-06 -1.8845313589497356e-06 -1.9226423893886005e-06 -1.9628149279704047e-06 -2.0051492212609541e-06 -2.0497525950917798e-06 -2.0967399993856394e-06 -2.1462345890889295e-06 -2.1983683354743147e-06 -2.2532826997150772e-06 -2.3111294036136443e-06 -2.3720712902730643e-06 -2.4362832375345235e-06 -2.5039531173148652e-06 -2.5752828507124648e-06 -2.6504896143687093e-06 -2.7298071973110558e-06 -2.8134874692132694e-06 -2.9018019586715434e-06 -2.9950436015045777e-06 -3.0935287127837660e-06 -3.1975991736234552e-06 -3.3076248091598423e-06 -3.4240060045496464e-06 -3.5471766588712762e-06 -3.6776075241484835e-06 -3.8158098969463775e-06 -3.9623396610278300e-06 -4.1178017945452276e-06 -4.2828554853096290e-06 -4.4582199014056297e-06 -4.6446806130784137e-06 -4.8430967648309893e-06 -5.0544092039967857e-06 -5.2796497157153348e-06 -5.5199514143506427e-06 -5.7765604226426749e-06 -6.0508491558810797e-06 -6.3443315426368805e-06 -6.6586803739655711e-06 -6.9957470002065473e-06 -7.3575838423534483e-06 -7.7464703175788514e-06 -8.1649426879355436e-06 -8.6158283768590932e-06 -9.1022856012657378e-06 -9.6278493819261939e-06 -1.0196485005051341e-05 -1.0812650232554219e-05 -1.1481368064990980e-05 -1.2208312151014227e-05 -1.2999907094424736e-05 -1.3863446647964625e-05 -1.4807233883682133e-05 -1.5840748004116591e-05 -1.6974843048897375e-05 -1.8221985595398312e-05 -1.9596540928203326e-05 -2.1115118877806243e-05 -2.2796992985178770e-05 -2.4664611274523647e-05 -2.6744222351593633e-05 -2.9066646370695238e-05 -3.1668229169919257e-05 -3.4592030531964825e-05 -3.7889313215118720e-05 -4.1621420241975550e-05 -4.5862157881559743e-05 -5.0700842939751731e-05 -5.6246228845435457e-05 -6.2631604371392685e-05 -7.0021473060373642e-05 -7.8620383713597764e-05 -8.8684717472587994e-05 -1.0053858630667842e-04 -1.1459551677233044e-04 -1.3138837509716676e-04 -1.5161119445272482e-04 -1.7617843983579697e-04 -2.0631020950673951e-04 -2.4365664817873226e-04 -2.9048266170775218e-04 -3.4994703330903042e-04 -4.2653207063230494e-04 -5.2671773325699744e-04 -6.6005979494287840e-04 -8.4094546988452577e-04 -1.0914934432141401e-03 -1.4463680920478732e-03 -1.9606100665700596e-03 -2.7210739937886825e-03 -3.8550083003009647e-03 -5.4807918911300262e-03 -7.2458015098524299e-03 -5.3340683190371413e-03 2.4622914889097305e-02 2.0977116598468074e-01 1.0000000000000000e+00 0.0000000000000000e+00 -1.7596572959028474e-06 -1.8598423427741473e-06 -1.8744404961542093e-06 -1.8795060315024328e-06 -1.8844615985465189e-06 -1.8904822109585607e-06 -1.8977238210334192e-06 -1.9062183504756026e-06 -1.9159845632156393e-06 -1.9270418518258303e-06 -1.9394119907579785e-06 -1.9531194071769119e-06 -1.9681912944584829e-06 -1.9846577304877123e-06 -2.0025518054095337e-06 -2.0219097452673424e-06 -2.0427710324921360e-06 -2.0651785409725482e-06 -2.0891787009735772e-06 -2.1148216903041341e-06 -2.1421616355765604e-06 -2.1712568169579158e-06 -2.2021698900688181e-06 -2.2349681434746891e-06 -2.2697237916174413e-06 -2.3065142839482840e-06 -2.3454226179133758e-06 -2.3865376710341582e-06 -2.4299545819345364e-06 -2.4757751909408241e-06 -2.5241085199785460e-06 -2.5750712687859166e-06 -2.6287883355230516e-06 -2.6853933953592021e-06 -2.7450295565774343e-06 -2.8078500792077913e-06 -2.8740191354434827e-06 -2.9437126256159105e-06 -3.0171190909489644e-06 -3.0944407421049823e-06 -3.1758945785953888e-06 -3.2617135735530384e-06 -3.3521479509842169e-06 -3.4474666192192618e-06 -3.5479587911420846e-06 -3.6539357638507049e-06 -3.7657328332254185e-06 -3.8837113839105258e-06 -4.0082612284782524e-06 -4.1398032223985720e-06 -4.2787921314759952e-06 -4.4257197650444712e-06 -4.5811184665986413e-06 -4.7455650511111234e-06 -4.9196851943149438e-06 -5.1041582535707302e-06 -5.2997225963840986e-06 -5.5071815983097201e-06 -5.7274104191937404e-06 -5.9613635731162689e-06 -6.2100833516944327e-06 -6.4747092970825334e-06 -6.7564889408806506e-06 -7.0567899171752728e-06 -7.3771135574601922e-06 -7.7191102534177034e-06 -8.0845969795444395e-06 -8.4755772618329402e-06 -8.8942638243513050e-06 -9.3431043569618589e-06 -9.8248110664089073e-06 -1.0342394617591273e-05 -1.0899203020578185e-05 -1.1498966334191608e-05 -1.2145848431466894e-05 -1.2844507041422750e-05 -1.3600163232379855e-05 -1.4418682083812779e-05 -1.5306667073372935e-05 -1.6271570838555889e-05 -1.7321825002419227e-05 -1.8466992819315494e-05 -1.9717949904562907e-05 -2.1087098953862153e-05 -2.2588625041065083e-05 -2.4238800425528525e-05 -2.6056350695577215e-05 -2.8062896120709921e-05 -3.0283485243207101e-05 -3.2747243471052167e-05 -3.5488165684798017e-05 -3.8546088811376249e-05 -4.1967891392814704e-05 -4.5808982112656478e-05 -5.0135156924415181e-05 -5.5024929442851995e-05 -6.0572474785613835e-05 -6.6891373002560988e-05 -7.4119401648188097e-05 -8.2424717919966581e-05 -9.2013895909928115e-05 -1.0314246032425660e-04 -1.1612881250627288e-04 -1.3137281038965573e-04 -1.4938079473285370e-04 -1.7079963900250300e-04 -1.9646356746057269e-04 -2.2745923594693219e-04 -2.6521722701849471e-04 -3.1164216900560736e-04 -3.6929991399339590e-04 -4.4168977739942884e-04 -5.3364441927619569e-04 -6.5192166008479083e-04 -8.0608314347437168e-04 -1.0097923165986369e-03 -1.2826913277700666e-03 -1.6529604458582336e-03 -2.1602454314233440e-03 -2.8566837464038125e-03 -3.7944492748386198e-03 -4.9387361377305778e-03 -5.6588484734733458e-03 -1.7787421180343894e-03 3.0871877945616369e-02 2.1587648085843789e-01 1.0000000000000000e+00 0.0000000000000000e+00 -2.2055241705713484e-06 -2.3306369009454575e-06 -2.3488717071710262e-06 -2.3552046423064853e-06 -2.3614025963825756e-06 -2.3689328776311497e-06 -2.3779902221056549e-06 -2.3886144878793541e-06 -2.4008290944804039e-06 -2.4146582311253881e-06 -2.4301290506196041e-06 -2.4472720196190461e-06 -2.4661210691202343e-06 -2.4867137385672634e-06 -2.5090913211751258e-06 -2.5332990056110255e-06 -2.5593860262293942e-06 -2.5874058423322197e-06 -2.6174163533926845e-06 -2.6494801366207614e-06 -2.6836646901758888e-06 -2.7200426843583136e-06 -2.7586922411499215e-06 -2.7996972567690206e-06 -2.8431477588405016e-06 -2.8891402794613078e-06 -2.9377782433246152e-06 -2.9891723950478951e-06 -3.0434412883718735e-06 -3.1007118312917919e-06 -3.1611198618224775e-06 -3.2248107470039981e-06 -3.2919400327109132e-06 -3.3626741782016889e-06 -3.4371913769511011e-06 -3.5156824379149127e-06 -3.5983517190033289e-06 -3.6854181453498458e-06 -3.7771163517852024e-06 -3.8736979491907619e-06 -3.9754328851127416e-06 -4.0826108985940488e-06 -4.1955431220702701e-06 -4.3145638842646868e-06 -4.4400327116967088e-06 -4.5723364951548022e-06 -4.7118918336237822e-06 -4.8591476297893497e-06 -5.0145879983078034e-06 -5.1787354824173169e-06 -5.3521545653190185e-06 -5.5354555377786314e-06 -5.7292988314769948e-06 -5.9343998715567831e-06 -6.1515344335209390e-06 -6.3815445377552450e-06 -6.6253450271667222e-06 -6.8839309835712150e-06 -7.1583860386789142e-06 -7.4498916114644212e-06 -7.7597372274339376e-06 -8.0893321680603066e-06 -8.4402186252286525e-06 -8.8140864624646165e-06 -9.2127898068322291e-06 -9.6383658720024757e-06 -1.0093056387373086e-05 -1.0579331887241507e-05 -1.1099919221267492e-05 -1.1657832931573540e-05 -1.2256411226283763e-05 -1.2899357159535640e-05 -1.3590785735253486e-05 -1.4335278069002998e-05 -1.5137944006759668e-05 -1.6004494562608231e-05 -1.6941325695559050e-05 -1.7955615550977465e-05 -1.9055437897270371e-05 -2.0249894808376197e-05 -2.1549272103244653e-05 -2.2965222009082255e-05 -2.4510978680852214e-05 -2.6201613336856369e-05 -2.8054337208590498e-05 -3.0088862601101808e-05 -3.2327834943109854e-05 -3.4797351732946343e-05 -3.7527588356755224e-05 -4.0553556160686599e-05 -4.3916024721350012e-05 -4.7662648853915135e-05 -5.1849352766628772e-05 -5.6542038732287446e-05 -6.1818706894213964e-05 -6.7772099828678731e-05 -7.4513021259864742e-05 -8.2174524801592879e-05 -9.0917233674800589e-05 -1.0093614171276904e-04 -1.1246936572821054e-04 -1.2580948741731598e-04 -1.4131835853047617e-04 -1.5944656887917867e-04 -1.8075923864628327e-04 -2.0597045149693216e-04 -2.3598956865132246e-04 -2.7198397673797956e-04 -3.1546467251706688e-04 -3.6840365520608579e-04 -4.3339557476518016e-04 -5.1388052669423833e-04 -6.1444988590228728e-04 -7.4126088877777348e-04 -9.0258301957777103e-04 -1.1094761297167968e-03 -1.3765211896914916e-03 -1.7222995029463207e-03 -2.1686877828876396e-03 -2.7360360086005238e-03 -3.4229690658352106e-03 -4.1148133543241310e-03 -4.0944519921763088e-03 7.9800939855384631e-04 3.4256423455485879e-02 2.1821116763717460e-01 1.0000000000000000e+00 0.0000000000000000e+00 -2.6499777528042000e-06 -2.7999360817622348e-06 -2.8217921507500006e-06 -2.8293827424108997e-06 -2.8368114438021459e-06 -2.8458368999501161e-06 -2.8566924626957047e-06 -2.8694258435124865e-06 -2.8840650370836176e-06 -2.9006389423131191e-06 -2.9191799964349576e-06 -2.9397246033281812e-06 -2.9623133159540553e-06 -2.9869909996557035e-06 -3.0138069920361817e-06 -3.0428152661561141e-06 -3.0740746170946590e-06 -3.1076488884763849e-06 -3.1436072342101235e-06 -3.1820243949546946e-06 -3.2229809781967451e-06 -3.2665637551023225e-06 -3.3128659978127733e-06 -3.3619878645387131e-06 -3.4140368175855182e-06 -3.4691280605625054e-06 -3.5273850052110391e-06 -3.5889397936821960e-06 -3.6539338860564287e-06 -3.7225186950254407e-06 -3.7948562489480683e-06 -3.8711198969373667e-06 -3.9514950946449957e-06 -4.0361802919895134e-06 -4.1253879049071660e-06 -4.2193453454856938e-06 -4.3182961224016765e-06 -4.4225010569114337e-06 -4.5322396415507812e-06 -4.6478115249562440e-06 -4.7695381031478399e-06 -4.8977642457855923e-06 -5.0328602184558359e-06 -5.1752238277864770e-06 -5.3252827635348521e-06 -5.4834971241598760e-06 -5.6503621815642096e-06 -5.8264114688226980e-06 -6.0122202194751469e-06 -6.2084091366583062e-06 -6.4156485132883742e-06 -6.6346628042559763e-06 -6.8662357460469996e-06 -7.1112160391296003e-06 -7.3705235966440309e-06 -7.6451564638745838e-06 -7.9361985824547251e-06 -8.2448285061291447e-06 -8.5723290962117436e-06 -8.9200982967899608e-06 -9.2896612276580940e-06 -9.6826838298082492e-06 -1.0100988192194475e-05 -1.0546569720089695e-05 -1.1021616492811971e-05 -1.1528531234359418e-05 -1.2069956210649441e-05 -1.2648801361455448e-05 -1.3268276211375992e-05 -1.3931926288544869e-05 -1.4643674728403769e-05 -1.5407869759445109e-05 -1.6229339070939301e-05 -1.7113452330337056e-05 -1.8066193158585365e-05 -1.9094242080462444e-05 -2.0205072503502212e-05 -2.1407062152787738e-05 -2.2709622560918144e-05 -2.4123349886918991e-05 -2.5660201437421358e-05 -2.7333702910708572e-05 -2.9159191965493252e-05 -3.1154105424249605e-05 -3.3338319622585016e-05 -3.5734554946702246e-05 -3.8368857756687458e-05 -4.1271176951281175e-05 -4.4476056875100697e-05 -4.8023472749617730e-05 -5.1959841758186437e-05 -5.6339252542464673e-05 -6.1224966749920536e-05 -6.6691260472681390e-05 -7.2825693432833691e-05 -7.9731919133587775e-05 -8.7533181532310441e-05 -9.6376687982111723e-05 -1.0643910723119203e-04 -1.1793351816308263e-04 -1.3111823848234612e-04 -1.4630810301279241e-04 -1.6388894730504514e-04 -1.8433630142819437e-04 -2.0823963417924160e-04 -2.3633392775575582e-04 -2.6954093466006232e-04 -3.0902319200147815e-04 -3.5625472284925221e-04 -4.1311325468378545e-04 -4.8199944888200003e-04 -5.6598835507201185e-04 -6.6901548669149376e-04 -7.9609106747491765e-04 -9.5351385588930237e-04 -1.1490057683911860e-03 -1.3915808550589721e-03 -1.6907356386544046e-03 -2.0540380267497454e-03 -2.4806814745573771e-03 -2.9416831366333501e-03 -3.2961311448965764e-03 -2.8293459139679062e-03 2.5195633510704724e-03 3.6116844756911244e-02 2.1921981214475811e-01 1.0000000000000000e+00 0.0000000000000000e+00 -3.0927310271322503e-06 -3.2674366847928842e-06 -3.2928955792617124e-06 -3.3017321886143767e-06 -3.3103777283113737e-06 -3.3208810209913360e-06 -3.3335138383613226e-06 -3.3483316541065081e-06 -3.3653669482298042e-06 -3.3846532298059548e-06 -3.4062281096266768e-06 -3.4301338032275786e-06 -3.4564173399611346e-06 -3.4851307419570934e-06 -3.5163312003702421e-06 -3.5500812661131205e-06 -3.5864490770488909e-06 -3.6255086290932542e-06 -3.6673400756857166e-06 -3.7120300351127011e-06 -3.7596719054160179e-06 -3.8103662095889874e-06 -3.8642209920680567e-06 -3.9213522637656369e-06 -3.9818844773759186e-06 -4.0459510278356109e-06 -4.1136947974244497e-06 -4.1852687668214644e-06 -4.2608366882436855e-06 -4.3405737988357611e-06 -4.4246675707472483e-06 -4.5133185294116676e-06 -4.6067411764816964e-06 -4.7051650181816414e-06 -4.8088356689825174e-06 -4.9180160186214296e-06 -5.0329874962732235e-06 -5.1540514780564402e-06 -5.2815308457937047e-06 -5.4157716732861311e-06 -5.5571450412285557e-06 -5.7060490313498786e-06 -5.8629109495809223e-06 -6.0281897745596098e-06 -6.2023788039642415e-06 -6.3860085236429573e-06 -6.5796497852522423e-06 -6.7839173568743568e-06 -6.9994738405248077e-06 -7.2270339444256500e-06 -7.4673691777705435e-06 -7.7213130831457288e-06 -7.9897670655433475e-06 -8.2737068170515400e-06 -8.5741893928672894e-06 -8.8923610981183211e-06 -9.2294663366652768e-06 -9.5868574739008787e-06 -9.9660057662826141e-06 -1.0368513548160231e-05 -1.0796127941433469e-05 -1.1250756265869887e-05 -1.1734483274986000e-05 -1.2249590485423719e-05 -1.2798578018855075e-05 -1.3384189320476464e-05 -1.4009439034656982e-05 -1.4677644483732251e-05 -1.5392461445077459e-05 -1.6157924918119417e-05 -1.6978495486864292e-05 -1.7859112129427779e-05 -1.8805252724443295e-05 -1.9823003548227179e-05 -2.0919138975561583e-05 -2.2101213054579347e-05 -2.3377665361211538e-05 -2.4757943721335474e-05 -2.6252646376247386e-05 -2.7873687033572193e-05 -2.9634487555654982e-05 -3.1550203558219388e-05 -3.3637988654903147e-05 -3.5917304958851427e-05 -3.8410289728989925e-05 -4.1142189398549734e-05 -4.4141874396672021e-05 -4.7442452351894553e-05 -5.1082001361665294e-05 -5.5104449143370749e-05 -5.9560630937547432e-05 -6.4509567997148056e-05 -7.0020017858067032e-05 -7.6172361000515236e-05 -8.3060906902886753e-05 -9.0796723475106879e-05 -9.9511121606125062e-05 -1.0935996458077821e-04 -1.2052901830238754e-04 -1.3324061760416913e-04 -1.4776200287919581e-04 -1.6441577901937744e-04 -1.8359307112050249e-04 -2.0577010547925091e-04 -2.3152912536738088e-04 -2.6158475393543473e-04 -2.9681712108651506e-04 -3.3831321300843069e-04 -3.8741785957863471e-04 -4.4579528705486384e-04 -5.1550071150919586e-04 -5.9905805775644792e-04 -6.9953272002764428e-04 -8.2057401997935814e-04 -9.6637488980067410e-04 -1.1414466924841633e-03 -1.3500195479245120e-03 -1.5947249931120607e-03 -1.8739044690093535e-03 -2.1758235732220405e-03 -2.4620471028256076e-03 -2.5922497988959611e-03 -1.8801915068020164e-03 3.6494014658200870e-03 3.7183248801140198e-02 2.1970762031115787e-01 1.0000000000000000e+00 0.0000000000000000e+00 -3.5335046603080461e-06 -3.7328434750328322e-06 -3.7618837616261066e-06 -3.7719528775188751e-06 -3.7817991212041646e-06 -3.7937601379538444e-06 -3.8081458919964137e-06 -3.8250195176090728e-06 -3.8444178795062523e-06 -3.8663789823410952e-06 -3.8909454793117672e-06 -3.9181652468708680e-06 -3.9480916172553702e-06 -3.9807835729946236e-06 -4.0163059436142421e-06 -4.0547296284350258e-06 -4.0961318635842652e-06 -4.1405965297665650e-06 -4.1882144796693624e-06 -4.2390838717182215e-06 -4.2933105227299212e-06 -4.3510083061392113e-06 -4.4122996075908818e-06 -4.4773158246510635e-06 -4.5461978939949618e-06 -4.6190968525298254e-06 -4.6961744572924576e-06 -4.7776038767027882e-06 -4.8635704385811849e-06 -4.9542724179031704e-06 -5.0499218784744330e-06 -5.1507456082461443e-06 -5.2569861707258389e-06 -5.3689030536065505e-06 -5.4867738865300546e-06 -5.6108957390582240e-06 -5.7415865476216669e-06 -5.8791867048244125e-06 -6.0240607994298381e-06 -6.1765994884536176e-06 -6.3372215283844092e-06 -6.5063760241381235e-06 -6.6845449213110948e-06 -6.8722457182450213e-06 -7.0700343918089876e-06 -7.2785086018275004e-06 -7.4983112624161780e-06 -7.7301345076904901e-06 -7.9747240283344437e-06 -8.2328838031733074e-06 -8.5054813312925697e-06 -8.7934534629531057e-06 -9.0978128499912732e-06 -9.4196550332877926e-06 -9.7601662855865014e-06 -1.0120632382506452e-05 -1.0502448397034274e-05 -1.0907129548215247e-05 -1.1336323227458197e-05 -1.1791822458560298e-05 -1.2275581022035060e-05 -1.2789730369204016e-05 -1.3336598508216782e-05 -1.3918731230172812e-05 -1.4538916082448633e-05 -1.5200209376474238e-05 -1.5905966556614461e-05 -1.6659876521515306e-05 -1.7466000626168878e-05 -1.8328816978824738e-05 -1.9253270672720155e-05 -2.0244830952632719e-05 -2.1309556603390774e-05 -2.2454170814988963e-05 -2.3686146855933342e-05 -2.5013806383907726e-05 -2.6446432735963478e-05 -2.7994401752207328e-05 -2.9669332996745999e-05 -3.1484264988409225e-05 -3.3453858919925337e-05 -3.5594636080721201e-05 -3.7925255151209331e-05 -4.0466836966442077e-05 -4.3243346010224927e-05 -4.6282039734915528e-05 -4.9613999235472347e-05 -5.3274757939215640e-05 -5.7305048549537228e-05 -6.1751693019084473e-05 -6.6668666405103090e-05 -7.2118372495777553e-05 -7.8173177606622048e-05 -8.4917260677773245e-05 -9.2448851921201112e-05 -1.0088294866873360e-04 -1.1035461926609287e-04 -1.2102303319384426e-04 -1.3307638679025557e-04 -1.4673793405679933e-04 -1.6227337964402989e-04 -1.7999994236945913e-04 -2.0029745575461625e-04 -2.2362192700168702e-04 -2.5052201027770201e-04 -2.8165884278480630e-04 -3.1782958233877155e-04 -3.5999467567366267e-04 -4.0930820669576336e-04 -4.6714930554246430e-04 -5.3515002218171683e-04 -6.1521039311978297e-04 -7.0948322442781478e-04 -8.2029719165566790e-04 -9.4996410563261005e-04 -1.1003808111820625e-03 -1.2722841541544440e-03 -1.4639408593068836e-03 -1.6688882428653341e-03 -1.8715200266397412e-03 -2.0335846272050702e-03 -2.0247896139302195e-03 -1.1874157388490473e-03 4.3973694860136026e-03 3.7825033239523055e-02 2.1996636186767990e-01 1.0000000000000000e+00 0.0000000000000000e+00 -3.9720236214934978e-06 -4.1958657706236645e-06 -4.2284630860234861e-06 -4.2397493654104777e-06 -4.2507780041809731e-06 -4.2641739301314060e-06 -4.2802850413568683e-06 -4.2991820171679774e-06 -4.3209059919733643e-06 -4.3454993339903299e-06 -4.3730095873644737e-06 -4.4034901165722737e-06 -4.4370003610194724e-06 -4.4736060464535166e-06 -4.5133794053600352e-06 -4.5563994326031702e-06 -4.6027521868760677e-06 -4.6525311256730753e-06 -4.7058374541126821e-06 -4.7627804862282484e-06 -4.8234780412858227e-06 -4.8880568977928089e-06 -4.9566533035261371e-06 -5.0294135213776843e-06 -5.1064944024647178e-06 -5.1880640053073401e-06 -5.2743022863932982e-06 -5.3654018634619853e-06 -5.4615688312820929e-06 -5.5630236237485304e-06 -5.6700019507689759e-06 -5.7827558464546958e-06 -5.9015548314072345e-06 -6.0266871602827746e-06 -6.1584611426404825e-06 -6.2972065721497861e-06 -6.4432763134547692e-06 -6.5970480574068069e-06 -6.7589262208139491e-06 -6.9293439900308104e-06 -7.1087655580009548e-06 -7.2976886055337067e-06 -7.4966470255011472e-06 -7.7062138658538260e-06 -7.9270045207191775e-06 -8.1596802579294449e-06 -8.4049521469835508e-06 -8.6635853789271348e-06 -8.9364039672363478e-06 -9.2242959012012688e-06 -9.5282188690996198e-06 -9.8492066097619055e-06 -1.0188375896139524e-05 -1.0546934215690061e-05 -1.0926188309925338e-05 -1.1327553713546595e-05 -1.1752565336412990e-05 -1.2202889149226068e-05 -1.2680335177761953e-05 -1.3186872067772503e-05 -1.3724643382605053e-05 -1.4295985756991636e-05 -1.4903449183125187e-05 -1.5549819833390414e-05 -1.6238145748877173e-05 -1.6971765659233542e-05 -1.7754341380356190e-05 -1.8589894449203405e-05 -1.9482847625778412e-05 -2.0438071837929997e-05 -2.1460939372873000e-05 -2.2557384397444018e-05 -2.3733971916261052e-05 -2.4997976357715479e-05 -2.6357471397576964e-05 -2.7821432972341062e-05 -2.9399857488657012e-05 -3.1103897623633927e-05 -3.2946018947917914e-05 -3.4940181058439787e-05 -3.7102047118647957e-05 -3.9449226784950094e-05 -4.2001558999601700e-05 -4.4781441854602281e-05 -4.7814217730897575e-05 -5.1128624375620836e-05 -5.4757324941923491e-05 -5.8737531767658617e-05 -6.3111742022375564e-05 -6.7928608045563475e-05 -7.3243969304156461e-05 -7.9122078148027863e-05 