<?xml version='1.0' encoding='utf-8'?>
<VTKFile type="UnstructuredGrid" version="0.1" byte_order="LittleEndian">
  <UnstructuredGrid>
    <Piece NumberOfPoints="16384" NumberOfCells="16129">
      <PointData>
        <DataArray type="Float64" Name="velocity_u" NumberOfComponents="1">0.0000000000000000e+00 0.0000000000000000e+00 0.0000000000000000e+00 0.0000000000000000e+00 0.0000000000000000e+00 0.0000000000000000e+00 0.0000000000000000e+00 0.0000000000000000e+00 0.0000000000000000e+00 0.0000000000000000e+00 0.0000000000000000e+00 0.0000000000000000e+00 0.0000000000000000e+00 0.0000000000000000e+00 0.0000000000000000e+00 0.0000000000000000e+00 0.0000000000000000e+00 0.0000000000000000e+00 0.0000000000000000e+00 0.0000000000000000e+00 0.0000000000000000e+00 0.0000000000000000e+00 0.0000000000000000e+00 0.0000000000000000e+00 0.0000000000000000e+00 0.0000000000000000e+00 0.0000000000000000e+00 0.0000000000000000e+00 0.0000000000000000e+00 0.0000000000000000e+00 0.0000000000000000e+00 0.0000000000000000e+00 0.0000000000000000e+00 0.0000000000000000e+00 0.0000000000000000e+00 0.0000000000000000e+00 0.0000000000000000e+00 0.0000000000000000e+00 0.0000000000000000e+00 0.0000000000000000e+00 0.0000000000000000e+00 0.0000000000000000e+00 0.0000000000000000e+00 0.0000000000000000e+00 0.0000000000000000e+00 0.0000000000000000e+00 0.0000000000000000e+00 0.0000000000000000e+00 0.0000000000000000e+00 0.0000000000000000e+00 0.0000000000000000e+00 0.0000000000000000e+00 0.0000000000000000e+00 0.0000000000000000e+00 0.0000000000000000e+00 0.0000000000000000e+00 0.0000000000000000e+00 0.0000000000000000e+00 0.0000000000000000e+00 0.0000000000000000e+00 0.0000000000000000e+00 0.0000000000000000e+00 0.0000000000000000e+00 0.0000000000000000e+00 0.0000000000000000e+00 0.0000000000000000e+00 0.0000000000000000e+00 0.0000000000000000e+00 0.0000000000000000e+00 0.0000000000000000e+00 0.0000000000000000e+00 0.0000000000000000e+00 0.0000000000000000e+00 0.0000000000000000e+00 0.0000000000000000e+00 0.0000000000000000e+00 0.0000000000000000e+00 0.0000000000000000e+00 0.0000000000000000e+00 0.0000000000000000e+00 0.0000000000000000e+00 0.0000000000000000e+00 0.0000000000000000e+00 0.0000000000000000e+00 0.0000000000000000e+00 0.0000000000000000e+00 0.0000000000000000e+00 0.0000000000000000e+00 0.0000000000000000e+00 0.0000000000000000e+00 0.0000000000000000e+00 0.0000000000000000e+00 0.0000000000000000e+00 0.0000000000000000e+00 0.0000000000000000e+00 0.0000000000000000e+00 0.0000000000000000e+00 0.0000000000000000e+00 0.0000000000000000e+00 0.0000000000000000e+00 0.0000000000000000e+00 0.0000000000000000e+00 0.0000000000000000e+00 0.0000000000000000e+00 0.0000000000000000e+00 0.0000000000000000e+00 0.0000000000000000e+00 0.0000000000000000e+00 0.0000000000000000e+00 0.0000000000000000e+00 0.0000000000000000e+00 0.0000000000000000e+00 0.0000000000000000e+00 0.0000000000000000e+00 0.0000000000000000e+00 0.0000000000000000e+00 0.0000000000000000e+00 0.0000000000000000e+00 0.0000000000000000e+00 0.0000000000000000e+00 0.0000000000000000e+00 0.0000000000000000e+00 0.0000000000000000e+00 0.0000000000000000e+00 0.0000000000000000e+00 0.0000000000000000e+00 0.0000000000000000e+00 1.0000000000000000e+00 0.0000000000000000e+00 -1.2432179648290809e-06 -2.0639713275166311e-06 -2.4712577715528328e-06 -2.6445206498712891e-06 -2.7114545888048298e-06 -2.7376562338509306e-06 -2.7512138422959157e-06 -2.7625330721135210e-06 -2.7749474382893882e-06 -2.7893395536413309e-06 -2.8058688385790664e-06 -2.8245315539854545e-06 -2.8453133091403377e-06 -2.8682188283825815e-06 -2.8932716044522468e-06 -2.9205091673989044e-06 -2.9499794752099569e-06 -2.9817388094396324e-06 -3.0158506702249357e-06 -3.0523852493119457e-06 -3.0914192560061674e-06 -3.1330359847851957e-06 -3.1773255409874519e-06 -3.2243851443235063e-06 -3.2743194627205093e-06 -3.3272409848184199e-06 -3.3832704685355081e-06 -3.4425374773222846e-06 -3.5051809713895077e-06 -3.5713499190670290e-06 -3.6412039424202191e-06 -3.7149140506007676e-06 -3.7926634902968402e-06 -3.8746486797964602e-06 -3.9610801757041976e-06 -4.0521836794900803e-06 -4.1482011581881443e-06 -4.2493921409849183e-06 -4.3560351724097551e-06 -4.4684293591043796e-06 -4.5868960029538342e-06 -4.7117803979469332e-06 -4.8434538665719332e-06 -4.9823160260942545e-06 -5.1287972316647622e-06 -5.2833612156706355e-06 -5.4465080345217642e-06 -5.6187774081730062e-06 -5.8007524223632687e-06 -5.9930635333339046e-06 -6.1963929367661628e-06 -6.4114794779843373e-06 -6.6391242219110739e-06 -6.8801966557168347e-06 -7.1356414953740584e-06 -7.4064862351589130e-06 -7.6938496752188071e-06 -7.9989515486195961e-06 -8.3231232488486470e-06 -8.6678197722413531e-06 -9.0346332063483104e-06 -9.4253080918560047e-06 -9.8417587869822666e-06 -1.0286088949589176e-05 -1.0760613543590975e-05 -1.1267883985026320e-05 -1.1810716903710304e-05 -1.2392226855093373e-05 -1.3015863577125972e-05 -1.3685454780499995e-05 -1.4405255483818334e-05 -1.5180004756489926e-05 -1.6014991023576830e-05 -1.6916127712325953e-05 -1.7890041293910142e-05 -1.8944173765871189e-05 -2.0086902128393401e-05 -2.1327678385953851e-05 -2.2677194177554905e-05 -2.4147574564166255e-05 -2.5752607040567431e-05 -2.7508014032919576e-05 -2.9431778208829141e-05 -3.1544530817742004e-05 -3.3870017077547119e-05 -3.6435658482563905e-05 -3.9273235847168701e-05 -4.2419720397934274e-05 -4.5918289184565241e-05 -4.9819574726251926e-05 -5.4183211975998528e-05 -5.9079762013674763e-05 -6.4593119036778721e-05 -7.0823543707925331e-05 -7.7891510916925334e-05 -8.5942624654556662e-05 -9.5153946363000892e-05 -1.0574221066485846e-04 -1.1797458307893887e-04 -1.3218287976594085e-04 -1.4878255485861175e-04 -1.6829832794688736e-04 -1.9139918036920745e-04 -2.1894675762498900e-04 -2.5206324494345247e-04 -2.9222800278635872e-04 -3.4141747032690763e-04 -4.0231150134441919e-04 -4.7860402123522651e-04 -5.7548158606202441e-04 -7.0037922009075486e-04 -8.6420558014745931e-04 -1.0833777888873994e-03 -1.3832611792105889e-03 -1.8039988308871319e-03 -2.4101368652356334e-03 -3.3052843481480307e-03 -4.6501616979867776e-03 -6.6710987551085342e-03 -9.6137856154596985e-03 -1.3519875549226311e-02 -1.7531194148890338e-02 -1.7977893601511207e-02 -2.8313142255129136e-03 6.7568333585576124e-02 3.2393786024359977e-01 1.0000000000000000e+00 0.0000000000000000e+00 -3.3059416624816633e-06 -5.1530565423388902e-06 -6.0817359910550160e-06 -6.4943275512533504e-06 -6.6639188758995098e-06 -6.7352473494754286e-06 -6.7733739244713587e-06 -6.8039481696287381e-06 -6.8359456831505430e-06 -6.8721380394772017e-06 -6.9132593671522949e-06 -6.9594719769078652e-06 -7.0108216761402315e-06 -7.0673579529272379e-06 -7.1291565621908984e-06 -7.1963187250975986e-06 -7.2689670753039437e-06 -7.3472426119413944e-06 -7.4313029712556466e-06 -7.5213216600023765e-06 -7.6174879371563522e-06 -7.7200071247735823e-06 -7.8291011819961235e-06 -7.9450094302264423e-06 -8.0679893938032401e-06 -8.1983177806656091e-06 -8.3362916291275540e-06 -8.4822296037379569e-06 -8.6364733999409384e-06 -8.7993892503383623e-06 -8.9713695778190295e-06 -9.1528348438071946e-06 -9.3442355871787806e-06 -9.5460546126592077e-06 -9.7588093249838703e-06 -9.9830542813608689e-06 -1.0219384051214404e-05 -1.0468436401303153e-05 -1.0730895755216419e-05 -1.1007496905242783e-05 -1.1299029053050631e-05 -1.1606340297779905e-05 -1.1930342623499541e-05 -1.2272017363177106e-05 -1.2632421151165795e-05 -1.3012692481938204e-05 -1.3414059018604879e-05 -1.3837845700963633e-05 -1.4285483637817475e-05 -1.4758519860328032e-05 -1.5258628162071646e-05 -1.5787621253969157e-05 -1.6347464320460791e-05 -1.6940290008647231e-05 -1.7568415037260058e-05 -1.8234358783476018e-05 -1.8940864168551993e-05 -1.9690921025713561e-05 -2.0487792189545098e-05 -2.1335042793953949e-05 -2.2236573380114786e-05 -2.3196657279249426e-05 -2.4219982682066317e-05 -2.5311700097379258e-05 -2.6477476249393543e-05 -2.7723555475032845e-05 -2.9056829560785409e-05 -3.0484917213521336e-05 -3.2016254920157899e-05 -3.3660201241627305e-05 -3.5427156576164548e-05 -3.7328700789756499e-05 -3.9377752036209462e-05 -4.1588750839476160e-05 -4.3977873769328297e-05 -4.6563281704114498e-05 -4.9365409375971062e-05 -5.2407304735497031e-05 -5.5715027775261770e-05 -5.9318119869946146e-05 -6.3250157979723900e-05 -6.7549412574052165e-05 -7.2259632055904469e-05 -7.7430980400219107e-05 -8.3121161503506348e-05 -8.9396774161412313e-05 -9.6334953537448791e-05 -1.0402536837226266e-04 -1.1257266184041149e-04 -1.2209945041019384e-04 -1.3275002883008120e-04 -1.4469497312176325e-04 -1.5813689368997548e-04 -1.7331767209004232e-04 -1.9052762460997096e-04 -2.1011718850204994e-04 -2.3251193919919582e-04 -2.5823204198814680e-04 -2.8791766285116887e-04 -3.2236247046097348e-04 -3.6255823812403971e-04 -4.0975484642632217e-04 -4.6554192228559456e-04 -5.3196127721342253e-04 -6.1166381834597142e-04 -7.0813169142350664e-04 -8.2599774119232884e-04 -9.7151285924537635e-04 -1.1532425882018358e-03 -1.3831265936243801e-03 -1.6781243138671614e-03 -2.0628237608372019e-03 -2.5736453815258975e-03 -3.2656568355489230e-03 -4.2234462856324756e-03 -5.5774515701607014e-03 -7.5246811585022401e-03 -1.0342335725104625e-02 -1.4351026889869523e-02 -1.9703558140216869e-02 -2.5696187623093465e-02 -2.8934467020993015e-02 -1.8953388870135882e-02 3.1383445779084605e-02 1.8179645588241572e-01 5.1617728180917821e-01 1.0000000000000000e+00 0.0000000000000000e+00 -5.7718865246648256e-06 -8.7576867286987625e-06 -1.0244749215170978e-05 -1.0914109475149294e-05 -1.1197503017608269e-05 -1.1321713387260127e-05 -1.1390015312198693e-05 -1.1444248274368951e-05 -1.1499717294083697e-05 -1.1561515582488305e-05 -1.1631197767827880e-05 -1.1709224476869240e-05 -1.1795772549389728e-05 -1.1890976200596638e-05 -1.1994988689674046e-05 -1.2107993506002613e-05 -1.2230203794197095e-05 -1.2361860287902431e-05 -1.2503229934689336e-05 -1.2654605407154636e-05 -1.2816305320483840e-05 -1.2988674946075960e-05 -1.3172087247753280e-05 -1.3366944141201295e-05 -1.3573677962355703e-05 -1.3792753172834072e-05 -1.4024668309085559e-05 -1.4269958140693452e-05 -1.4529196006842036e-05 -1.4802996352371453e-05 -1.5092017523343030e-05 -1.5396964858378222e-05 -1.5718594058165809e-05 -1.6057714813135016e-05 -1.6415194734578704e-05 -1.6791963690515739e-05 -1.7189018617848021e-05 -1.7607428800154407e-05 -1.8048341578249356e-05 -1.8512988540532284e-05 -1.9002692327868095e-05 -1.9518874173095238e-05 -2.0063062207208180e-05 -2.0636900539393192e-05 -2.1242159207198465e-05 -2.1880745178680823e-05 -2.2554714551911992e-05 -2.3266286004081265e-05 -2.4017855563824415e-05 -2.4812012930652015e-05 -2.5651559656753421e-05 -2.6539529420417903e-05 -2.7479210509523464e-05 -2.8474170713807374e-05 -2.9528285038445435e-05 -3.0645766733688607e-05 -3.1831202027521388e-05 -3.3089588914180620e-05 -3.4426380563687828e-05 -3.5847534153428267e-05 -3.7359565913049819e-05 -3.8969613081895444e-05 -4.0685503674471875e-05 -4.2515835379519380e-05 -4.4470065144430119e-05 -4.6558610945893157e-05 -4.8792967401622564e-05 -5.1185837472544050e-05 -5.3751283084930051e-05 -5.6504897721926425e-05 -5.9464004351209123e-05 -6.2647882977859786e-05 -6.6078033261204880e-05 -6.9778478435250708e-05 -7.3776117605301372e-05 -7.8101135104668206e-05 -8.2787477810109626e-05 -8.7873413562784825e-05 -9.3402186423997250e-05 -9.9422787977744521e-05 -1.0599086814028161e-04 -1.1316981420152264e-04 -1.2103203417928666e-04 -1.2966048985322531e-04 -1.3915053503582814e-04 -1.4961212762392293e-04 -1.6117250324525643e-04 -1.7397942337347413e-04 -1.8820514006031108e-04 -2.0405125783723088e-04 -2.2175472765188762e-04 -2.4159527907805891e-04 -2.6390468896460588e-04 -2.8907841022483485e-04 -3.1759025773581167e-04 -3.5001108327169906e-04 -3.8703269455607942e-04 -4.2949872715418902e-04 -4.7844481812901518e-04 -5.3515133992087041e-04 -6.0121326365329512e-04 -6.7863363595281243e-04 -7.6994998052675443e-04 -8.7840716677327129e-04 -1.0081967218274254e-03 -1.1647924886652493e-03 -1.3554280872032749e-03 -1.5897864160359107e-03 -1.8810114721583661e-03 -2.2472181088874109e-03 -2.7137819466983037e-03 -3.3168613705389068e-03 -4.1088534034949198e-03 -5.1667745679989125e-03 -6.6046015944752345e-03 -8.5893199069834950e-03 -1.1354493240744837e-02 -1.5185895211927777e-02 -2.0301507513481715e-02 -2.6425655544372005e-02 -3.1608713494283701e-02 -2.9431324165308945e-02 -3.3687982442177486e-03 8.1463518619577860e-02 2.7834815672044688e-01 6.1538984232208283e-01 1.0000000000000000e+00 0.0000000000000000e+00 -8.4035635131446084e-06 -1.2590508261866849e-05 -1.4652018760365909e-05 -1.5580607481903512e-05 -1.5978484867177968e-05 -1.6156813274412982e-05 -1.6256941263353696e-05 -1.6336575354606305e-05 -1.6417229512436768e-05 -1.6506328973521090e-05 -1.6606299849813219e-05 -1.6717950435409624e-05 -1.6841625192910741e-05 -1.6977567840718572e-05 -1.7126025762139985e-05 -1.7287276386134108e-05 -1.7461632270265313e-05 -1.7649441356760533e-05 -1.7851086743166458e-05 -1.8066986928709353e-05 -1.8297596625998187e-05 -1.8543408025338782e-05 -1.8804952392238460e-05 -1.9082801945453316e-05 -1.9377572028722300e-05 -1.9689923599525054e-05 -2.0020566018534161e-05 -2.0370260099668782e-05 -2.0739821414120169e-05 -2.1130123900728052e-05 -2.1542103848847390e-05 -2.1976764273270011e-05 -2.2435179662704894e-05 -2.2918501114733313e-05 -2.3427961943326631e-05 -2.3964883865033947e-05 -2.4530683807280917e-05 -2.5126881322027327e-05 -2.5755106623249228e-05 -2.6417109367272845e-05 -2.7114768337312259e-05 -2.7850102128028415e-05 -2.8625280856620016e-05 -2.9442638969922262e-05 -3.0304689329870254e-05 -3.1214138793432886e-05 -3.2173905422946543e-05 -3.3187137417646197e-05 -3.4257233962422265e-05 -3.5387868337471851e-05 -3.6583013634132430e-05 -3.7846971304126908e-05 -3.9184402762342422e-05 -4.0600364454943605e-05 -4.2100346983889124e-05 -4.3690318850665607e-05 -4.5376775293638724e-05 -4.7166792820012198e-05 -4.9068090322688793e-05 -5.1089097805927628e-05 -5.3239033675403032e-05 -5.5527991631017174e-05 -5.7967038610185411e-05 -6.0568325624611598e-05 -6.3345213417258215e-05 -6.6312414945908564e-05 -6.9486157211547266e-05 -7.2884365682181735e-05 -7.6526875012611811e-05 -8.0435670097604532e-05 -8.4635162341607204e-05 -8.9152507313584780e-05 -9.4017971024730408e-05 -9.9265353038731826e-05 -1.0493247637397955e-04 -1.1106175665970727e-04 -1.1770086533288001e-04 -1.2490350412077054e-04 -1.3273031218611551e-04 -1.4124993296073582e-04 -1.5054027306589987e-04 -1.6068999158688697e-04 -1.7180026768766414e-04 -1.8398690816849667e-04 -1.9738287082954583e-04 -2.1214129590384060e-04 -2.2843916245969759e-04 -2.4648172016786604e-04 -2.6650788604387637e-04 -2.8879684597085664e-04 -3.1367617128004688e-04 -3.4153185297787427e-04 -3.7282077463070393e-04 -4.0808630658468873e-04 -4.4797792504416026e-04 -4.9327605499393688e-04 -5.4492374174075920e-04 -6.0406732209134547e-04 -6.7210905247454570e-04 -7.5077575766610831e-04 -8.4220914455688297e-04 -9.4908569667108021e-04 -1.0747773646896123e-03 -1.2235691271335013e-03 -1.4009567247055524e-03 -1.6140587527728018e-03 -1.8721938740848725e-03 -2.1876994170461901e-03 -2.5771071123104512e-03 -3.0628527687567640e-03 -3.6757891134973414e-03 -4.4589018552700773e-03 -5.4727794540119995e-03 -6.8034303756426074e-03 -8.5724891088242092e-03 -1.0947149303133520e-02 -1.4137961938153155e-02 -1.8346188954200052e-02 -2.3555765692592209e-02 -2.8918989106585743e-02 -3.1223061900359856e-02 -2.1632204876597817e-02 1.9729311940988356e-02 1.2814466716840778e-01 3.4346303537704714e-01 6.6464701259917069e-01 1.0000000000000000e+00 0.0000000000000000e+00 -1.1091002225754331e-05 -1.6509433850975901e-05 -1.9154085287127011e-05 -2.0341751074141622e-05 -2.0852411971972615e-05 -2.1083842354827182e-05 -2.1215592450009881e-05 -2.1320901196428530e-05 -2.1427223389986346e-05 -2.1544181408219923e-05 -2.1675023990735852e-05 -2.1820898134955233e-05 -2.1982321041194223e-05 -2.2159653966202923e-05 -2.2353245591209581e-05 -2.2563472821818560e-05 -2.2790751735602830e-05 -2.3035540565824269e-05 -2.3298340971710206e-05 -2.3579699269351227e-05 -2.3880207995772436e-05 -2.4200507825591127e-05 -2.4541289805640045e-05 -2.4903297913948609e-05 -2.5287331977937108e-05 -2.5694250961659347e-05 -2.6124976589986023e-05 -2.6580497282340560e-05 -2.7061872426711627e-05 -2.7570237072172842e-05 -2.8106807099292532e-05 -2.8672884871054308e-05 -2.9269865356006504e-05 -2.9899242775629711e-05 -3.0562617887561777e-05 -3.1261705997396406e-05 -3.1998345720995351e-05 -3.2774508503900691e-05 -3.3592308984622725e-05 -3.4454016371850848e-05 -3.5362066986513488e-05 -3.6319078034600262e-05 -3.7327862662906743e-05 -3.8391446452682209e-05 -3.9513085600661040e-05 -4.0696287005570187e-05 -4.1944830394008286e-05 -4.3262792652011804e-05 -4.4654574683351691e-05 -4.6124931205984407e-05 -4.7679003823904886e-05 -4.9322357637731800e-05 -5.1061021778508363e-05 -5.2901534475985565e-05 -5.4850993347588984e-05 -5.6917111504188753e-05 -5.9108280093891078e-05 -6.1433638173484252e-05 -6.3903151052187619e-05 -6.6527698267013826e-05 -6.9319172343603857e-05 -7.2290589805169372e-05 -7.5456216376040231e-05 -7.8831708571190971e-05 -8.2434273919939239e-05 -8.6282852439787349e-05 -9.0398322745187967e-05 -9.4803736829679363e-05 -9.9524587923369322e-05 -1.0458911649360161e-04 -1.1002866076407095e-04 -1.1587805948927156e-04 -1.2217611572173069e-04 -1.2896613169056150e-04 -1.3629652740261875e-04 -1.4422155854597546e-04 -1.5280215189316334e-04 -1.6210687948837280e-04 -1.7221309788841414e-04 -1.8320828533004420e-04 -1.9519161663330954e-04 -2.0827582345244846e-04 -2.2258939841825285e-04 -2.3827921669106173e-04 -2.5551366642678986e-04 -2.7448640105201782e-04 -2.9542085427318075e-04 -3.1857569603276656e-04 -3.4425145494034224e-04 -3.7279859312522692e-04 -4.0462739916559344e-04 -4.4022016936771924e-04 -4.8014628489007456e-04 -5.2508097562927087e-04 -5.7582880701296678e-04 -6.3335325412044953e-04 -6.9881417504645440e-04 -7.7361560815355536e-04 -8.5946715760031359e-04 -9.5846339953817425e-04 -1.0731873789870496e-03 -1.2068465719564554e-03 -1.3634529678680991e-03 -1.5480636351041313e-03 -1.7671049258417453e-03 -2.0288133591083329e-03 -2.3438406642638057e-03 -2.7260915836498666e-03 -3.1938937212611577e-03 -3.7716422468265158e-03 -4.4921198996601235e-03 -5.3997544674694734e-03 -6.5550884515871190e-03 -8.0405021948770986e-03 -9.9661202334201532e-03 -1.2470995090127770e-02 -1.5703192971840640e-02 -1.9731644300196621e-02 -2.4269128951554846e-02 -2.7935623551122609e-02 -2.6561076358767994e-02 -9.9263830496052648e-03 4.2692218591754511e-02 1.6358521995279143e-01 3.8211141471508592e-01 6.8707868153982887e-01 1.0000000000000000e+00 0.0000000000000000e+00 -1.3789809573533984e-05 -2.0451546791161602e-05 -2.3683730448134528e-05 -2.5130327976394603e-05 -2.5752326545075339e-05 -2.6035605665746869e-05 -2.6198238658493893e-05 -2.6328883833681531e-05 -2.6460761628021007e-05 -2.6605566755074577e-05 -2.6767302295849119e-05 -2.6947422605948718e-05 -2.7146605626810584e-05 -2.7365326818437367e-05 -2.7604036076696777e-05 -2.7863210548454740e-05 -2.8143370511844917e-05 -2.8445084800413829e-05 -2.8768973532659686e-05 -2.9115710360630556e-05 -2.9486024831429487e-05 -2.9880705000293714e-05 -3.0300600345024189e-05 -3.0746625037820092e-05 -3.1219761617748984e-05 -3.1721065058576707e-05 -3.2251667199880610e-05 -3.2812781545707624e-05 -3.3405708501188425e-05 -3.4031841136284342e-05 -3.4692671516556241e-05 -3.5389797592660506e-05 -3.6124930663761742e-05 -3.6899903504740398e-05 -3.7716679277773315e-05 -3.8577361298970695e-05 -3.9484203678514779e-05 -4.0439622888678235e-05 -4.1446210409896554e-05 -4.2506746639960608e-05 -4.3624216183358515e-05 -4.4801824575997753e-05 -4.6043016559646469e-05 -4.7351496147391022e-05 -4.8731248759782926e-05 -5.0186565630888146e-05 -5.1722070641546022e-05 -5.3342749848122402e-05 -5.5053984125214829e-05 -5.6861585347207625e-05 -5.8771836438174742e-05 -6.0791535649249722e-05 -6.2928045635723490e-05 -6.5189348076943396e-05 -6.7584104545584370e-05 -7.0121724276362858e-05 -7.2812439667524115e-05 -7.5667390669434579e-05 -7.8698719352311995e-05 -8.1919675912264363e-05 -8.5344737540672729e-05 -8.8989742053337056e-05 -9.2872038573776160e-05 -9.7010657676235420e-05 -1.0142650360345897e-04 -1.0614257184263160e-04 -1.1118419614163823e-04 -1.1657932953611780e-04 -1.2235886444855650e-04 -1.2855699799693606e-04 -1.3521165010496979e-04 -1.4236494323490925e-04 -1.5006375380484689e-04 -1.5836034735783018e-04 -1.6731311225240636e-04 -1.7698740948331003e-04 -1.8745655951597344e-04 -1.9880299137190019e-04 -2.1111958442943086e-04 -2.2451123954912041e-04 -2.3909672438766888e-04 -2.5501084835028375e-04 -2.7240703443188590e-04 -2.9146036953442141e-04 -3.1237123507253927e-04 -3.3536964559699694e-04 -3.6072045306457059e-04 -3.8872961249543429e-04 -4.1975175698642043e-04 -4.5419939631131061e-04 -4.9255413567543126e-04 -5.3538042034932231e-04 -5.8334245699539935e-04 -6.3722515007375382e-04 -6.9796013875095958e-04 -7.6665835120071990e-04 -8.4465093542011405e-04 -9.3354101788297957e-04 -1.0352695438361451e-03 -1.1521995450779780e-03 -1.2872246706140051e-03 -1.4439098605446520e-03 -1.6266748643584466e-03 -1.8410351983837051e-03 -2.0939205176725793e-03 -2.3940977990003385e-03 -2.7527368724628068e-03 -3.1841694496975359e-03 -3.7069103389386748e-03 -4.3450299910862446e-03 -5.1299846840678143e-03 -6.1030013694533727e-03 -7.3180023160906004e-03 -8.8446034043371605e-03 -1.0769226674813271e-02 -1.3187865135402902e-02 -1.6171439285774452e-02 -1.9652300303017449e-02 -2.3106236432849349e-02 -2.4762808574597103e-02 -1.9896161478827931e-02 2.1891538681984477e-03 6.1628488487834289e-02 1.8725265174873035e-01 4.0238471214205696e-01 6.9492715774964264e-01 1.0000000000000000e+00 0.0000000000000000e+00 -1.6483693704835038e-05 -2.4390946682657696e-05 -2.8212070787601784e-05 -2.9917450905397694e-05 -3.0649906141854379e-05 -3.0984099630329716e-05 -3.1176889443674041e-05 -3.1332365835133804e-05 -3.1489443970530257e-05 -3.1661817703112951e-05 -3.1854192694777598e-05 -3.2068299798920124e-05 -3.2304961077763611e-05 -3.2564757765764933e-05 -3.2848236725560027e-05 -3.3155972982687797e-05 -3.3488589345013250e-05 -3.3846763692431614e-05 -3.4231232906508537e-05 -3.4642796025486980e-05 -3.5082317359993889e-05 -3.5550729793481001e-05 -3.6049038379794073e-05 -3.6578324323616995e-05 -3.7139749382765082e-05 -3.7734560678868013e-05 -3.8364095902684808e-05 -3.9029788960535021e-05 -3.9733176160200583e-05 -4.0475903016481897e-05 -4.1259731691881691e-05 -4.2086549066820273e-05 -4.2958375491002648e-05 -4.3877374335465261e-05 -4.4845862458533879e-05 -4.5866321636235269e-05 -4.6941410993439033e-05 -4.8073980548268028e-05 -4.9267086059761918e-05 -5.0524005345752804e-05 -5.1848256154622106e-05 -5.3243615671897339e-05 -5.4714141860183788e-05 -5.6264196934169820e-05 -5.7898473240117863e-05 -5.9622021721890236e-05 -6.1440283189290439e-05 -6.3359122762913131e-05 -6.5384867963571861e-05 -6.7524350851646197e-05 -6.9784954573613074e-05 -7.2174664818509126e-05 -7.4702126913460593e-05 -7.7376709344435064e-05 -8.0208574402323871e-05 -8.3208756719760685e-05 -8.6389250771291213e-05 -8.9763108669234772e-05 -9.3344549605086031e-05 -9.7149082325144424e-05 -1.0119364239272841e-04 -1.0549674647702405e-04 -1.1007866613682442e-04 -1.1496162368096648e-04 -1.2017001317162404e-04 -1.2573065045467182e-04 -1.3167305672722173e-04 -1.3802978056799399e-04 -1.4483676418284365e-04 -1.5213376098597919e-04 -1.5996481291409822e-04 -1.6837879696192455e-04 -1.7743005216829726e-04 -1.8717910087197006e-04 -1.9769348058936098e-04 -2.0904870534961274e-04 -2.2132937921585168e-04 -2.3463049021886693e-04 -2.4905891834292175e-04 -2.6473519678427441e-04 -2.8179557439636890e-04 -3.0039443940502490e-04 -3.2070717716163746e-04 -3.4293354878382526e-04 -3.6730169812493102e-04 -3.9407292186800438e-04 -4.2354736828794444e-04 -4.5607086836128499e-04 -4.9204315543888697e-04 -5.3192779568070803e-04 -5.7626423195648088e-04 -6.2568245044460427e-04 -6.8092091875965462e-04 -7.4284862048879202e-04 -8.1249224109160908e-04 -8.9106986465470035e-04 -9.8003293531799930e-04 -1.0811187548010258e-03 -1.1964164744901317e-03 -1.3284504425030896e-03 -1.4802859548260431e-03 -1.6556640307850024e-03 -1.8591738885263332e-03 -2.0964744660555324e-03 -2.3745797537223371e-03 -2.7022269534846353e-03 -3.0903515033477748e-03 -3.5526983458961368e-03 -4.1066029972516753e-03 -4.7739749715771905e-03 -5.5824991178324585e-03 -6.5670075378320304e-03 -7.7707804961296405e-03 -9.2459602011886622e-03 -1.1050590436764679e-02 -1.3235054859004603e-02 -1.5797853470110482e-02 -1.8558483897293677e-02 -2.0823776666561111e-02 -2.0595676355848396e-02 -1.2931637587097807e-02 1.2775126127130165e-02 7.5570667912523135e-02 2.0155684527098852e-01 4.1128326513037183e-01 6.9531322369242643e-01 1.0000000000000000e+00 0.0000000000000000e+00 -1.9166779450864772e-05 -2.8317003521860372e-05 -3.2726471737569260e-05 -3.4690211973289719e-05 -3.5532547771110587e-05 -3.5917022820959852e-05 -3.6139385765369654e-05 -3.6319191726993476e-05 -3.6501035031960909e-05 -3.6700577228758394e-05 -3.6923197068789806e-05 -3.7170880019487361e-05 -3.7444577754585130e-05 -3.7744968116701798e-05 -3.8072689087478082e-05 -3.8428409554173790e-05 -3.8812851720348689e-05 -3.9226799706822526e-05 -3.9671104370292838e-05 -4.0146687192515977e-05 -4.0654544056438255e-05 -4.1195749184509455e-05 -4.1771459387497501e-05 -4.2382918717702251e-05 -4.3031463555436009e-05 -4.3718528118281864e-05 -4.4445650412164718e-05 -4.5214478708350959e-05 -4.6026778652339989e-05 -4.6884441059411243e-05 -4.7789490395523010e-05 -4.8744093959813196e-05 -4.9750571862709432e-05 -5.0811407934113272e-05 -5.1929261654149218e-05 -5.3106981146962195e-05 -5.4347617309755837e-05 -5.5654439241858251e-05 -5.7030951172840226e-05 -5.8480911021401081e-05 -6.0008350658984399e-05 -6.1617598019845723e-05 -6.3313301335093822e-05 -6.5100455808746646e-05 -6.6984432970309271e-05 -6.8971012894114678e-05 -7.1066419588951827e-05 -7.3277360014813544e-05 -7.5611067194510025e-05 -7.8075347806011788e-05 -8.0678634690503037e-05 -8.3430044932068597e-05 -8.6339444321097887e-05 -8.9417518964760720e-05 -9.2675854768656561e-05 -9.6127025731178496e-05 -9.9784692323763726e-05 -1.0366371135622397e-04 -1.0778025870388264e-04 -1.1215196647862394e-04 -1.1679807670867571e-04 -1.2173961395309672e-04 -1.2699957937917605e-04 -1.3260316911121431e-04 -1.3857802038689062e-04 -1.4495448980723276e-04 -1.5176596838129482e-04 -1.5904923860475125e-04 -1.6684487998551754e-04 -1.7519773082103236e-04 -1.8415741505775794e-04 -1.9377894423487754e-04 -2.0412340667029849e-04 -2.1525875877954380e-04 -2.2726073580874598e-04 -2.4021390183315706e-04 -2.5421286297269669e-04 -2.6936367327805869e-04 -2.8578546842027153e-04 -3.0361236846053257e-04 -3.2299569940687450e-04 -3.4410659459451826e-04 -3.6713905011382839e-04 -3.9231352368965971e-04 -4.1988118583796935e-04 -4.5012895728803156e-04 -4.8338549737269698e-04 -5.2002834574384703e-04 -5.6049246775819416e-04 -6.0528051435139625e-04 -6.5497518276036492e-04 -7.1025416078106880e-04 -7.7190825936204483e-04 -8.4086349201892166e-04 -9.1820805665070648e-04 -1.0052254268429126e-03 -1.1034350768625563e-03 -1.2146427696350284e-03 -1.3410028513160257e-03 -1.4850956384078468e-03 -1.6500237857348114e-03 -1.8395325061599621e-03 -2.0581596746212802e-03 -2.3114231686793829e-03 -2.6060541576476658e-03 -2.9502861705562205e-03 -3.3542100616504636e-03 -3.8302031959133991e-03 -4.3934347560741251e-03 -5.0624326400869942e-03 -5.8596586593882647e-03 -6.8119468079879337e-03 -7.9504296819516481e-03 -9.3089678173272818e-03 -1.0918407770163925e-02 -1.2789304959401003e-02 -1.4863193288408398e-02 -1.6881386427329208e-02 -1.8052686388905639e-02 -1.6284947493907753e-02 -6.6375315842466601e-03 2.1157230609889201e-02 8.5082124483005978e-02 2.0943962149323989e-01 4.1389968291031992e-01 6.9251523472090493e-01 1.0000000000000000e+00 0.0000000000000000e+00 -2.1836530060086568e-05 -3.2224740934199379e-05 -3.7220652211254004e-05 -3.9441956540798071e-05 -4.0393661928812046e-05 -4.0827948484575285e-05 -4.1079416655719438e-05 -4.1283090743801136e-05 -4.1489243755683459e-05 -4.1715495276403565e-05 -4.1967883745938185e-05 -4.2248636485411921e-05 -4.2558824435219219e-05 -4.2899214216091490e-05 -4.3270529038258484e-05 -4.3673527022584279e-05 -4.4109025848762672e-05 -4.4577912274371331e-05 -4.5081147579036852e-05 -4.5619772014507184e-05 -4.6194909130346890e-05 -4.6807770278550946e-05 -4.7459659458534994e-05 -4.8151978588406794e-05 -4.8886233221421023e-05 -4.9664038712069877e-05 -5.0487126886612287e-05 -5.1357353324948173e-05 -5.2276705345158920e-05 -5.3247310716425693e-05 -5.4271447100345207e-05 -5.5351552276496168e-05 -5.6490235282266783e-05 -5.7690288596633277e-05 -5.8954701434060634e-05 -6.0286674194199937e-05 -6.1689634185625847e-05 -6.3167252822848784e-05 -6.4723464477810946e-05 -6.6362487086451345e-05 -6.8088844609071527e-05 -6.9907391563397679e-05 -7.1823339954790426e-05 -7.3842288895293405e-05 -7.5970257113681873e-05 -7.8213718593693709e-05 -8.0579641739539197e-05 -8.3075532563035270e-05 -8.5709482327424842e-05 -8.8490220043861768e-05 -9.1427170371063927e-05 -9.4530517689212968e-05 -9.7811277160942298e-05 -1.0128137350542576e-04 -1.0495372829792214e-04 -1.0884235692805814e-04 -1.1296247659575268e-04 -1.1733062672684757e-04 -1.2196480324548162e-04 -1.2688460852098093e-04 -1.3211141926441249e-04 -1.3766857483111687e-04 -1.4358158850657444e-04 -1.4987838487841231e-04 -1.5658956718990206e-04 -1.6374871910131733e-04 -1.7139274564205740e-04 -1.7956225895191948e-04 -1.8830201570762002e-04 -1.9766141427304690e-04 -2.0769506058363003e-04 -2.1846341331675909e-04 -2.3003352112296277e-04 -2.4247986697038419e-04 -2.5588533707953222e-04 -2.7034233519926588e-04 -2.8595406695772153e-04 -3.0283602339800880e-04 -3.2111769848817799e-04 -3.4094458282663784e-04 -3.6248048377318979e-04 -3.8591023128791552e-04 -4.1144284155153249e-04 -4.3931522672732411e-04 -4.6979655665119435e-04 -5.0319339943431362e-04 -5.3985579718339980e-04 -5.8018446829917708e-04 -6.2463936817162412e-04 -6.7374989211130482e-04 -7.2812707101945764e-04 -7.8847818959167657e-04 -8.556243544