<?xml version='1.0' encoding='utf-8'?>
<VTKFile type="UnstructuredGrid" version="0.1" byte_order="LittleEndian">
  <UnstructuredGrid>
    <Piece NumberOfPoints="16384" NumberOfCells="16129">
      <PointData>
        <DataArray type="Float64" Name="velocity_u" NumberOfComponents="1">0.0000000000000000e+00 0.0000000000000000e+00 0.0000000000000000e+00 0.0000000000000000e+00 0.0000000000000000e+00 0.0000000000000000e+00 0.0000000000000000e+00 0.0000000000000000e+00 0.0000000000000000e+00 0.0000000000000000e+00 0.0000000000000000e+00 0.0000000000000000e+00 0.0000000000000000e+00 0.0000000000000000e+00 0.0000000000000000e+00 0.0000000000000000e+00 0.0000000000000000e+00 0.0000000000000000e+00 0.0000000000000000e+00 0.0000000000000000e+00 0.0000000000000000e+00 0.0000000000000000e+00 0.0000000000000000e+00 0.0000000000000000e+00 0.0000000000000000e+00 0.0000000000000000e+00 0.0000000000000000e+00 0.0000000000000000e+00 0.0000000000000000e+00 0.0000000000000000e+00 0.0000000000000000e+00 0.0000000000000000e+00 0.0000000000000000e+00 0.0000000000000000e+00 0.0000000000000000e+00 0.0000000000000000e+00 0.0000000000000000e+00 0.0000000000000000e+00 0.0000000000000000e+00 0.0000000000000000e+00 0.0000000000000000e+00 0.0000000000000000e+00 0.0000000000000000e+00 0.0000000000000000e+00 0.0000000000000000e+00 0.0000000000000000e+00 0.0000000000000000e+00 0.0000000000000000e+00 0.0000000000000000e+00 0.0000000000000000e+00 0.0000000000000000e+00 0.0000000000000000e+00 0.0000000000000000e+00 0.0000000000000000e+00 0.0000000000000000e+00 0.0000000000000000e+00 0.0000000000000000e+00 0.0000000000000000e+00 0.0000000000000000e+00 0.0000000000000000e+00 0.0000000000000000e+00 0.0000000000000000e+00 0.0000000000000000e+00 0.0000000000000000e+00 0.0000000000000000e+00 0.0000000000000000e+00 0.0000000000000000e+00 0.0000000000000000e+00 0.0000000000000000e+00 0.0000000000000000e+00 0.0000000000000000e+00 0.0000000000000000e+00 0.0000000000000000e+00 0.0000000000000000e+00 0.0000000000000000e+00 0.0000000000000000e+00 0.0000000000000000e+00 0.0000000000000000e+00 0.0000000000000000e+00 0.0000000000000000e+00 0.0000000000000000e+00 0.0000000000000000e+00 0.0000000000000000e+00 0.0000000000000000e+00 0.0000000000000000e+00 0.0000000000000000e+00 0.0000000000000000e+00 0.0000000000000000e+00 0.0000000000000000e+00 0.0000000000000000e+00 0.0000000000000000e+00 0.0000000000000000e+00 0.0000000000000000e+00 0.0000000000000000e+00 0.0000000000000000e+00 0.0000000000000000e+00 0.0000000000000000e+00 0.0000000000000000e+00 0.0000000000000000e+00 0.0000000000000000e+00 0.0000000000000000e+00 0.0000000000000000e+00 0.0000000000000000e+00 0.0000000000000000e+00 0.0000000000000000e+00 0.0000000000000000e+00 0.0000000000000000e+00 0.0000000000000000e+00 0.0000000000000000e+00 0.0000000000000000e+00 0.0000000000000000e+00 0.0000000000000000e+00 0.0000000000000000e+00 0.0000000000000000e+00 0.0000000000000000e+00 0.0000000000000000e+00 0.0000000000000000e+00 0.0000000000000000e+00 0.0000000000000000e+00 0.0000000000000000e+00 0.0000000000000000e+00 0.0000000000000000e+00 0.0000000000000000e+00 0.0000000000000000e+00 0.0000000000000000e+00 0.0000000000000000e+00 0.0000000000000000e+00 1.0000000000000000e+00 0.0000000000000000e+00 -7.0762857626320862e-07 -8.2485057544584288e-07 -8.4820367703766966e-07 -8.5354645513688732e-07 -8.5620569804417539e-07 -8.5892539592514236e-07 -8.6215068420918465e-07 -8.6594811436890221e-07 -8.7032996096222773e-07 -8.7530360766591726e-07 -8.8087780986940063e-07 -8.8706305569988805e-07 -8.9387138556232102e-07 -9.0131628545994106e-07 -9.0941267174061304e-07 -9.1817693000619066e-07 -9.2762697143980886e-07 -9.3778228618202596e-07 -9.4866399850788273e-07 -9.6029494106923616e-07 -9.7269975428708570e-07 -9.8590499617640782e-07 -9.9993924451130551e-07 -1.0148331936688571e-06 -1.0306197691865829e-06 -1.0473342776058122e-06 -1.0650145811526328e-06 -1.0837012702176534e-06 -1.1034378233019556e-06 -1.1242707764525274e-06 -1.1462499320014340e-06 -1.1694286087994750e-06 -1.1938639076362617e-06 -1.2196169737519429e-06 -1.2467532743192041e-06 -1.2753429237575065e-06 -1.3054610614905654e-06 -1.3371882520695404e-06 -1.3706108874514650e-06 -1.4058216182873615e-06 -1.4429198622239676e-06 -1.4820123980935605e-06 -1.5232140047990054e-06 -1.5666481132880777e-06 -1.6124475030689422e-06 -1.6607551054947968e-06 -1.7117249305787468e-06 -1.7655230763695968e-06 -1.8223287977013804e-06 -1.8823356821491875e-06 -1.9457529992735480e-06 -2.0128072219258191e-06 -2.0837436695530875e-06 -2.1588282806960193e-06 -2.2383496109639595e-06 -2.3226211366866168e-06 -2.4119838402044629e-06 -2.5068090255163618e-06 -2.6075014212492852e-06 -2.7145027138070526e-06 -2.8282955841148036e-06 -2.9494082169624423e-06 -3.0784193060921898e-06 -3.2159637264624344e-06 -3.3627390491032128e-06 -3.5195129315246153e-06 -3.6871313987965121e-06 -3.8665282248036327e-06 -4.0587357440629344e-06 -4.2648972942252194e-06 -4.4862813841172547e-06 -4.7242978710296439e-06 -4.9805166639982292e-06 -5.2566894125682102e-06 -5.5547745268605870e-06 -5.8769661071082209e-06 -6.2257277081678918e-06 -6.6038318698047953e-06 -7.0144062929426965e-06 -7.4609879763647144e-06 -7.9475871746420944e-06 -8.4787631018725150e-06 -9.0597135091565169e-06 -9.6963813574622852e-06 -1.0395582868622745e-05 -1.1165161418257801e-05 -1.2014172548253176e-05 -1.2953107990874169e-05 -1.3994169116526615e-05 -1.5151601675455011e-05 -1.6442106884203158e-05 -1.7885349936503262e-05 -1.9504593325918638e-05 -2.1327489494352953e-05 -2.3387079207360561e-05 -2.5723058867830696e-05 -2.8383400893154342e-05 -3.1426441037905964e-05 -3.4923590542531946e-05 -3.8962892355628590e-05 -4.3653728171544740e-05 -4.9133113357926079e-05 -5.5574210735335900e-05 -6.3197983781815761e-05 -7.2289355035067303e-05 -8.3219932766471027e-05 -9.6480473822805208e-05 -1.1272804452964669e-04 -1.3285582825227815e-04 -1.5809861290181547e-04 -1.9019590376875633e-04 -2.3165073237290025e-04 -2.8615242157470578e-04 -3.5929035619770264e-04 -4.5980534716214368e-04 -6.0187970541117212e-04 -8.0953416269629425e-04 -1.1255056784889466e-03 -1.6299717633582829e-03 -2.4806003801621478e-03 -3.9918225439242710e-03 -6.7334203782641443e-03 -1.1241719461792813e-02 -1.4568856060605994e-02 1.0981237404561861e-02 2.1778495696237787e-01 1.0000000000000000e+00 0.0000000000000000e+00 -1.5315888936088116e-06 -1.7724101860945624e-06 -1.8209041885740755e-06 -1.8323939334514693e-06 -1.8382257474476833e-06 -1.8441286529471048e-06 -1.8510809044357844e-06 -1.8592461318775686e-06 -1.8686597103148230e-06 -1.8793409038865227e-06 -1.8913097667091809e-06 -1.9045892699423770e-06 -1.9192054174992470e-06 -1.9351872169426570e-06 -1.9525667199006419e-06 -1.9713791145384344e-06 -1.9916628359211495e-06 -2.0134596843211264e-06 -2.0368149643327605e-06 -2.0617776574469997e-06 -2.0884006222747708e-06 -2.1167408049445571e-06 -2.1468594541563960e-06 -2.1788223575562401e-06 -2.2127001200146727e-06 -2.2485684822275348e-06 -2.2865086557293583e-06 -2.3266076580081009e-06 -2.3689586638968933e-06 -2.4136614083224528e-06 -2.4608226561794442e-06 -2.5105567193918848e-06 -2.5629859946052699e-06 -2.6182415266686989e-06 -2.6764636326565839e-06 -2.7378026086503511e-06 -2.8024195041555416e-06 -2.8704869408831089e-06 -2.9421899903317365e-06 -3.0177271583914702e-06 -3.0973115033647170e-06 -3.1811718606798067e-06 -3.2695541387440188e-06 -3.3627227069892760e-06 -3.4609619481765662e-06 -3.5645780208502720e-06 -3.6739008097823929e-06 -3.7892860319479520e-06 -3.9111175326443441e-06 -4.0398098552013225e-06 -4.1758111248982658e-06 -4.3196062229587185e-06 -4.4717202527863059e-06 -4.6327223952884339e-06 -4.8032302716690106e-06 -4.9839148413036281e-06 -5.1755058047506966e-06 -5.3787975699866672e-06 -5.5946559615179723e-06 -5.8240258285091351e-06 -6.0679395918821570e-06 -6.3275267786304927e-06 -6.6040247482427268e-06 -6.8987908894066921e-06 -7.2133164555533667e-06 -7.5492421505333786e-06 -7.9083757529524459e-06 -8.2927122604552406e-06 -8.7044569751779571e-06 -9.1460518252223805e-06 -9.6202053844715465e-06 -1.0129927385217279e-05 -1.0678568583224409e-05 -1.1269866710153625e-05 -1.1907999461857507e-05 -1.2597646016045249e-05 -1.3344058829219629e-05 -1.4153147374833762e-05 -1.5031575837969863e-05 -1.5986877788332224e-05 -1.7027591610335578e-05 -1.8163420638176233e-05 -1.9405422659623888e-05 -2.0766235369665744e-05 -2.2260346293873077e-05 -2.3904416931850512e-05 -2.5717672949605279e-05 -2.7722376319777931e-05 -2.9944399967392177e-05 -3.2413930188106976e-05 -3.5166329255381872e-05 -3.8243201172188628e-05 -4.1693716063387799e-05 -4.5576265193584817e-05 -4.9960542893231864e-05 -5.4930183982886683e-05 -6.0586128051518877e-05 -6.7050943868572903e-05 -7.4474434617164949e-05 -8.3040965658370112e-05 -9.2979132818011830e-05 -1.0457464799602001e-04 -1.1818769639403051e-04 -1.3427658584280194e-04 -1.5343037303538158e-04 -1.7641448183581092e-04 -2.0423542043427101e-04 -2.3823406158099419e-04 -2.8022243830239986e-04 -3.3268818918698491e-04 -3.9910653564802131e-04 -4.8442738713818311e-04 -5.9585535580037848e-04 -7.4413413264969269e-04 -9.4572694850148724e-04 -1.2266417149699002e-03 -1.6293679419734980e-03 -2.2258131383457581e-03 -3.1415818086100466e-03 -4.5986832555507335e-03 -6.9675025613958243e-03 -1.0680129051577012e-02 -1.5079968959159520e-02 -1.1764963122656118e-02 4.4060757400665458e-02 3.1184163613786220e-01 1.0000000000000000e+00 0.0000000000000000e+00 -2.3769207434165484e-06 -2.7428523245982957e-06 -2.8164954349459653e-06 -2.8341417784119424e-06 -2.8432119123731402e-06 -2.8523814296252385e-06 -2.8631516046635730e-06 -2.8757841730818367e-06 -2.8903399533746771e-06 -2.9068517140347424e-06 -2.9253517699998735e-06 -2.9458761754329462e-06 -2.9684653390855556e-06 -2.9931641745037096e-06 -3.0200222376555442e-06 -3.0490938886309438e-06 -3.0804384661285370e-06 -3.1141204805553289e-06 -3.1502098435047551e-06 -3.1887821402744428e-06 -3.2299189323957684e-06 -3.2737080754037021e-06 -3.3202440565074330e-06 -3.3696283738283239e-06 -3.4219699697715354e-06 -3.4773857054454780e-06 -3.5360008536241669e-06 -3.5979496108934771e-06 -3.6633756603010657e-06 -3.7324328154818933e-06 -3.8052857436727333e-06 -3.8821107390276689e-06 -3.9630965334735459e-06 -4.0484451712912469e-06 -4.1383729852881638e-06 -4.2331116820221982e-06 -4.3329095139397980e-06 -4.4380325329659305e-06 -4.5487659635759323e-06 -4.6654157414323719e-06 -4.7883102194114974e-06 -4.9178020066811835e-06 -5.0542699374627999e-06 -5.1981212319520412e-06 -5.3497939238316331e-06 -5.5097595684981825e-06 -5.6785261991155054e-06 -5.8566415374111068e-06 -6.0446965403791672e-06 -6.2433293661401645e-06 -6.4532297740417097e-06 -6.6751439525663178e-06 -6.9098798466133413e-06 -7.1583131252033461e-06 -7.4213938830226706e-06 -7.7001540808668525e-06 -7.9957157612774900e-06 -8.3093002119530902e-06 -8.6422383011256920e-06 -8.9959821127486563e-06 -9.3721179505993721e-06 -9.7723809008105915e-06 -1.0198671287157527e-05 -1.0653073318581661e-05 -1.1137876128429510e-05 -1.1655597504823233e-05 -1.2209010852665606e-05 -1.2801175992248866e-05 -1.3435474277588520e-05 -1.4115648575966396e-05 -1.4845848991969501e-05 -1.5630685461515637e-05 -1.6475288307161769e-05 -1.7385377937923955e-05 -1.8367345355616841e-05 -1.9428345608594489e-05 -2.0576406519172214e-05 -2.1820555316684429e-05 -2.3170966585796164e-05 -2.4639135843415027e-05 -2.6238083846612387e-05 -2.7982597803346448e-05 -2.9889517177985297e-05 -3.1978073496466974e-05 -3.4270295761320405e-05 -3.6791496296055455e-05 -3.9570855665436552e-05 -4.2642129616106540e-05 -4.6044507048459279e-05 -4.9823656672075061e-05 -5.4033010605040232e-05 -5.8735346434546922e-05 -6.4004747695884772e-05 -6.9929047989788332e-05 -7.6612897094272055e-05 -8.4181631944600354e-05 -9.2786197421857185e-05 -1.0260944810686339e-04 -1.1387428095252230e-04 -1.2685421652549133e-04 -1.4188728766325752e-04 -1.5939444018970878e-04 -1.7990415319794705e-04 -2.0408573332913947e-04 -2.3279485403890709e-04 -2.6713660312680405e-04 -3.0855391676627903e-04 -3.5895337186218885e-04 -4.2088682339759396e-04 -4.9781793806775326e-04 -5.9452009739639040e-04 -7.1768139597125770e-04 -8.7684244171978560e-04 -1.0858793155421307e-03 -1.3653956381517634e-03 -1.7466513236129809e-03 -2.2780927000154959e-03 -3.0361414233831129e-03 -4.1419384121871416e-03 -5.7804752430837460e-03 -8.1824374396227348e-03 -1.1338846254063836e-02 -1.3343841673044601e-02 -2.8503456668261731e-03 6.8198672258682203e-02 3.4380760993127324e-01 1.0000000000000000e+00 0.0000000000000000e+00 -3.2245107285075465e-06 -3.7158908910615505e-06 -3.8146128031327392e-06 -3.8383437924322568e-06 -3.8506227885466777e-06 -3.8630500529337640e-06 -3.8776349384211577e-06 -3.8947317145419239e-06 -3.9144251723934015e-06 -3.9367613860686694e-06 -3.9617850018525946e-06 -3.9895452275680452e-06 -4.0200969008785875e-06 -4.0535008211778233e-06 -4.0898239889652021e-06 -4.1291398399518899e-06 -4.1715284896131503e-06 -4.2170770095315697e-06 -4.2658797536677752e-06 -4.3180387319727038e-06 -4.3736640134069950e-06 -4.4328741498348125e-06 -4.4957966356593245e-06 -4.5625684257421443e-06 -4.6333365150558362e-06 -4.7082585611003931e-06 -4.7875035355879714e-06 -4.8712524225194843e-06 -4.9596989982652231e-06 -5.0530507104064031e-06 -5.1515296367329199e-06 -5.2553735004811026e-06 -5.3648367517090622e-06 -5.4801917563439841e-06 -5.6017301222222469e-06 -5.7297641521663125e-06 -5.8646284045459676e-06 -6.0066813788625637e-06 -6.1563073783793591e-06 -6.3139185820208985e-06 -6.4799573088136314e-06 -6.6548984539716211e-06 -6.8392521335277183e-06 -7.0335666203834361e-06 -7.2384316233725616e-06 -7.4544818952971845e-06 -7.6824011555105080e-06 -7.9229263865156446e-06 -8.1768526104790050e-06 -8.4450382058109155e-06 -8.7284107659369389e-06 -9.0279735396978353e-06 -9.3448125863520917e-06 -9.6801047892912313e-06 -1.0035126786137549e-05 -1.0411264842351912e-05 -1.0810025805352921e-05 -1.1233049388256111e-05 -1.1682121991520204e-05 -1.2159192171995912e-05 -1.2666387920271686e-05 -1.3206036079674296e-05 -1.3780684295718038e-05 -1.4393125787588063e-05 -1.5046427242616656e-05 -1.5743960358754185e-05 -1.6489437732391432e-05 -1.7286953725499512e-05 -1.8141030917862679e-05 -1.9056673029608073e-05 -2.0039425536682079e-05 -2.1095445264281480e-05 -2.2231580282163786e-05 -2.3455461851151031e-05 -2.4775610726143898e-05 -2.6201560353428086e-05 -2.7743999762830650e-05 -2.9414939830303503e-05 -3.1227907634885562e-05 -3.3198174209463352e-05 -3.5343021822043010e-05 -3.7682058927270767e-05 -4.0237593150857181e-05 -4.3035074172686917e-05 -4.6103620776116081e-05 -4.9476651000262214e-05 -5.3192639448667711e-05 -5.7296030532452084e-05 -6.1838343828948914e-05 -6.6879519025926141e-05 -7.2489560671770828e-05 -7.8750558589688830e-05 -8.5759182957275676e-05 -9.3629783686177375e-05 -1.0249826219734784e-04 -1.1252693713176847e-04 -1.2391069971124343e-04 -1.3688485329471409e-04 -1.5173516840095267e-04 -1.6881087769582165e-04 -1.8854160498598429e-04 -2.1145960356858980e-04 -2.3822922931012337e-04 -2.6968636972088254e-04 -3.0689171254197838e-04 -3.5120346076464564e-04 -4.0437767899725635e-04 -4.6870834792955461e-04 -5.4722514843092817e-04 -6.4397614709783791e-04 -7.6443671880363528e-04 -9.1610801981545430e-04 -1.1094022035267864e-03 -1.3589626974952610e-03 -1.6856408946718095e-03 -2.1194400250652270e-03 -2.7037881927112215e-03 -3.5012495618620162e-03 -4.5990223904850622e-03 -6.1037513185757649e-03 -8.0732977420662853e-03 -1.0139764817986431e-02 -9.7419315167891936e-03 5.2318610129069498e-03 8.1594426906482331e-02 3.5398112062877596e-01 1.0000000000000000e+00 0.0000000000000000e+00 -4.0705709176142157e-06 -4.6872794741471566e-06 -4.8110259910302985e-06 -4.8407933580885684e-06 -4.8562443113936244e-06 -4.8718997109943293e-06 -4.8902711221969289e-06 -4.9118016737775015e-06 -4.9365983728574564e-06 -4.9647198428160466e-06 -4.9962227227651568e-06 -5.0311691791131927e-06 -5.0696283142376145e-06 -5.1116766335648710e-06 -5.1573983673033679e-06 -5.2068857724497793e-06 -5.2602394526479425e-06 -5.3175687249099321e-06 -5.3789920446897534e-06 -5.4446374762191464e-06 -5.5146431897641241e-06 -5.5891579878911210e-06 -5.6683418846460281e-06 -5.7523667572977479e-06 -5.8414170651217848e-06 -5.9356906158880371e-06 -6.0353993792221702e-06 -6.1407703748903884e-06 -6.2520466657482916e-06 -6.3694884542380734e-06 -6.4933742580969895e-06 -6.6240021585673901e-06 -6.7616911546236685e-06 -6.9067826673594245e-06 -7.0596422047162057e-06 -7.2206611640790708e-06 -7.3902587668806372e-06 -7.5688841666436180e-06 -7.7570187846392278e-06 -7.9551788860182582e-06 -8.1639183743544602e-06 -8.3838318123157526e-06 -8.6155577379638164e-06 -8.8597823540131820e-06 -9.1172436078554838e-06 -9.3887356423361458e-06 -9.6751136468365006e-06 -9.9772992134561304e-06 -1.0296286298095450e-05 -1.0633147815526053e-05 -1.0989042883696740e-05 -1.1365224817589103e-05 -1.1763050038916047e-05 -1.2183988017871475e-05 -1.2629632289117740e-05 -1.3101712636742410e-05 -1.3602108679790954e-05 -1.4132865121908286e-05 -1.4696208830917598e-05 -1.5294567889861329e-05 -1.5930592911572932e-05 -1.6607181043463646e-05 -1.7327503040093028e-05 -1.8095033716417030e-05 -1.8913586249362112e-05 -1.9787351036867328e-05 -2.0720939854830875e-05 -2.1719435967689809e-05 -2.2788451016229381e-05 -2.3934189896521303e-05 -2.5163525036608214e-05 -2.6484081453630769e-05 -2.7904334230535259e-05 -2.9433720682796251e-05 -3.1082769935897425e-05 -3.2863252766599650e-05 -3.4788355069628382e-05 -3.6872879472484566e-05 -3.9133480676985302e-05 -4.1588940715454348e-05 -4.4260491430156043e-05 -4.7172193715817355e-05 -5.0351385476468636e-05 -5.3829212290411659e-05 -5.7641257742700283e-05 -6.1828295175396419e-05 -6.6437188145359089e-05 -7.1521972922866385e-05 -7.7145164915766489e-05 -8.3379342655775216e-05 -9.0309076976255589e-05 -9.8033291096659000e-05 -1.0666816246808201e-04 -1.1635070938002179e-04 -1.2724324682678292e-04 -1.3953895357002766e-04 -1.5346886899337550e-04 -1.6931073952664537e-04 -1.8740027472766423e-04 -2.0814556592686041e-04 -2.3204568253801992e-04 -2.5971482826400548e-04 -2.9191395456108071e-04 -3.2959244906504440e-04 -3.7394353987957991e-04 -4.2647851433467781e-04 -4.8912692553723734e-04 -5.6437292591562623e-04 -6.5544208476696114e-04 -7.6655896932507548e-04 -9.0330389673211342e-04 -1.0731078617176575e-03 -1.2859370071947969e-03 -1.5552284430902824e-03 -1.8991357355825139e-03 -2.3420905471014599e-03 -2.9164877721733350e-03 -3.6636427314224338e-03 -4.6308844510461302e-03 -5.8526397501483009e-03 -7.2636205374906233e-03 -8.3104289132296567e-03 -6.2363375003462243e-03 1.0952248998965264e-02 8.8525951674787010e-02 3.5724262693814546e-01 1.0000000000000000e+00 0.0000000000000000e+00 -4.9140572860563704e-06 -5.6557610197774791e-06 -5.8044630112046981e-06 -5.8402314744249192e-06 -5.8588210383189621e-06 -5.8776696685840260e-06 -5.8997896025111844e-06 -5.9257113737548829e-06 -5.9555631384145770e-06 -5.9894153912568748e-06 -6.0273363305772836e-06 -6.0694007661697999e-06 -6.1156917876420574e-06 -6.1663013208500410e-06 -6.2213305106043453e-06 -6.2808900864513120e-06 -6.3451007615309221e-06 -6.4140936914093297e-06 -6.4880109922735023e-06 -6.5670062980749444e-06 -6.6512453446517649e-06 -6.7409065961828659e-06 -6.8361819430445253e-06 -6.9372774834782477e-06 -7.0444143755881865e-06 -7.1578297451066754e-06 -7.2777776610413354e-06 -7.4045302110244433e-06 -7.5383786932988080e-06 -7.6796349109247541e-06 -7.8286325505784452e-06 -7.9857286630211808e-06 -8.1513052932385489e-06 -8.3257712921631678e-06 -8.5095642984241294e-06 -8.7031528670566438e-06 -8.9070387632471978e-06 -9.1217594801674932e-06 -9.3478910248153221e-06 -9.5860509670983627e-06 -9.8369017400396909e-06 -1.0101154232655527e-05 -1.0379571758832879e-05 -1.0672974453899847e-05 -1.0982244091684440e-05 -1.1308329325235238e-05 -1.1652251433842415e-05 -1.2015110699420402e-05 -1.2398093480948824e-05 -1.2802479998160206e-05 -1.3229652881566582e-05 -1.3681106643316766e-05 -1.4158458231898825e-05 -1.4663458751778537e-05 -1.5198006414593756e-05 -1.5764160906552097e-05 -1.6364159453286310e-05 -1.7000434808155464e-05 -1.7675635309184976e-05 -1.8392647236924940e-05 -1.9154619883994619e-05 -1.9964993779486769e-05 -2.0827532416801479e-05 -2.1746357885291326e-05 -2.2725991051494061e-05 -2.3771397079514821e-05 -2.4888037009709699e-05 -2.6081926150588715e-05 -2.7359700374695319e-05 -2.8728691725842316e-05 -3.0197014787058177e-05 -3.1773665357234853e-05 -3.3468633467335972e-05 -3.5293033319735347e-05 -3.7259253016913109e-05 -3.9381127309779263e-05 -4.1674137419570888e-05 -4.4155642949004529e-05 -4.6845151740823597e-05 -4.9764634685500235e-05 -5.2938894104041686e-05 -5.6395996076519068e-05 -6.0167779203518828e-05 -6.4290455391760958e-05 -6.8805321951881105e-05 -7.3759608261876437e-05 -7.9207485701207066e-05 -8.5211277203830658e-05 -9.1842911716518897e-05 -9.9185679619447260e-05 -1.0733636001130051e-04 -1.1640781021785934e-04 -1.2653213190856778e-04 -1.3786455950844678e-04 -1.5058825865494444e-04 -1.6492027727283239e-04 -1.8111896307602677e-04 -1.9949325676518122e-04 -2.2041439836454631e-04 -2.4433075364953922e-04 -2.7178669530885356e-04 -3.0344678260667859e-04 -3.4012689730422393e-04 -3.8283455080493544e-04 -4.3282132987342199e-04 -4.9165144658510696e-04 -5.6129166827594609e-04 -6.4422958014573252e-04 -7.4362915969313295e-04 -8.6353485338895065e-04 -1.0091371613433400e-03 -1.1871126398793313e-03 -1.4060457003851577e-03 -1.6769207421567242e-03 -2.0136240222737379e-03 -2.4332783328190771e-03 -2.9559635811574688e-03 -3.6027048595873826e-03 -4.3885837327442539e-03 -5.2999369122335820e-03 -6.2082643365613480e-03 -6.5005044205073866e-03 -3.4349795060155744e-03 1.4688179056853941e-02 9.2148340861392258e-02 3.5832428023652263e-01 1.0000000000000000e+00 0.0000000000000000e+00 -5.7543708878050204e-06 -6.6206122709379963e-06 -6.7941769851157800e-06 -6.8359113324707751e-06 -6.8576065554741465e-06 -6.8796100815661905e-06 -6.9054339210937527e-06 -6.9356955573448494e-06 -6.9705437863375839e-06 -7.0100605024891371e-06 -7.0543250594913536e-06 -7.1034245514151277e-06 -7.1574557064424863e-06 -7.2165255068894916e-06 -7.2807516208030635e-06 -7.3502628298941961e-06 -7.4251995073722291e-06 -7.5057141628777069e-06 -7.5919720417626812e-06 -7.6841517579098255e-06 -7.7824459606474839e-06 -7.8870620629290783e-06 -7.9982230580587963e-06 -8.1161684262315169e-06 -8.2411551125468044e-06 -8.3734585713703221e-06 -8.5133739003394648e-06 -8.6612170929777690e-06 -8.8173264124543814e-06 -8.9820638673500731e-06 -9.1558167880365452e-06 -9.3389995420674544e-06 -9.5320554360376569e-06 -9.7354588142616782e-06 -9.9497173284212252e-06 -1.0175374370231701e-05 -1.0413011712024764e-05 -1.0663252418975256e-05 -1.0926764057165681e-05 -1.1204262183476244e-05 -1.1496514128520042e-05 -1.1804343141828127e-05 -1.2128632975266605e-05 -1.2470332924922201e-05 -1.2830463322177180e-05 -1.3210121521906570e-05 -1.3610488509680031e-05 -1.4032836236123560e-05 -1.4478535710332427e-05 -1.4949065874886697e-05 -1.5446023377326541e-05 -1.5971133419527623e-05 -1.6526261815911711e-05 -1.7113428326278092e-05 -1.7734821392496171e-05 -1.8392814538059814e-05 -1.9089984702503022e-05 -1.9829132685636461e-05 -2.0613305881643461e-05 -2.1445823652800571e-05 -2.2330305810887408e-05 -2.3270704607250932e-05 -2.4271340590134392e-05 -2.5336942870707142e-05 -2.6472694561887849e-05 -2.7684284155333108e-05 -2.8977963552747831e-05 -3.0360613695598118e-05 -3.1839819102598002e-05 -3.3423952746510092e-05 -3.5122272717099168e-05 -3.6945032477781985e-05 -3.8903607096687019e-05 -4.1010638119161870e-05 -4.3280199959781405e-05 -4.5727991451712976e-05 -4.8371557208738475e-05 -5.1230544021046055e-05 -5.4326998162054775e-05 -5.7685711180131808e-05 -6.1334623731822328e-05 -6.5305298261036392e-05 -6.9633473168427659e-05 -7.4359714866555787e-05 -7.9530188118722740e-05 -8.5197568394693838e-05 -9.1422125320406064e-05 -9.8273014494379817e-05 -1.0582982340184159e-04 -1.1418442699942244e-04 -1.2344322340821217e-04 -1.3372983863979169e-04 -1.4518841056697327e-04 -1.5798759154723459e-04 -1.7232544769612548e-04 -1.8843547958911471e-04 -2.0659405056608910e-04 -2.2712959043585674e-04 -2.5043404499472556e-04 -2.7697717432710481e-04 -3.0732447653452390e-04 -3.4215973332144716e-04 -3.8231345152552222e-04 -4.2879882357336021e-04 -4.8285724885349462e-04 -5.4601593688418607e-04 -6.2016061043529240e-04 -7.0762671574629149e-04 -8.1131256114277007e-04 -9.3481688342571430e-04 -1.0826003444014487e-03 -1.2601632047489039e-03 -1.4742157620383847e-03 -1.7327864471817019e-03 -2.0451509694545699e-03 -2.4213491747250410e-03 -2.8708298683886306e-03 -3.3992570611363058e-03 -4.0009367897220335e-03 -4.6374783048143305e-03 -5.1590656431791905e-03 -4.9554377105698478e-03 -1.3592812964244247e-03 1.7087442786053279e-02 9.4126186419497521e-02 3.5868547345145951e-01 1.0000000000000000e+00 0.0000000000000000e+00 -6.5909792297814523e-06 -7.5812069381418915e-06 -7.7795193491948951e-06 -7.8271793271510017e-06 -7.8519445878347707e-06 -7.8770605578149604e-06 -7.9065375457282956e-06 -7.9410797386176853e-06 -7.9808563127651215e-06 -8.0259602298056253e-06 -8.0764816373217936e-06 -8.1325195382386693e-06 -8.1941839054018204e-06 -8.2615963574169139e-06 -8.3348906359464683e-06 -8.4142130946248851e-06 -8.4997232508781406e-06 -8.5915944050189083e-06 -8.6900143071648582e-06 -8.7951858584877252e-06 -8.9073278621534552e-06 -9.0266758565543983e-06 -9.1534830486838639e-06 -9.2880213364688041e-06 -9.4305824030225723e-06 -9.5814788907767368e-06 -9.7410456868454205e-06 -9.9096413402453926e-06 -1.0087649601603747e-05 -1.0275481070352117e-05 -1.0473574967798652e-05 -1.0682401085523603e-05 -1.0902461943010060e-05 -1.1134295142971690e-05 -1.1378475900090474e-05 -1.1635619761703712e-05 -1.1906385584889536e-05 -1.2191478822249539e-05 -1.2491655118367518e-05 -1.2807724207668652e-05 -1.3140554154886244e-05 -1.3491076020992659e-05 -1.3860289007391789e-05 -1.4249266076680657e-05 -1.4659160064311572e-05 -1.5091210376733569e-05 -1.5546750407452241e-05 -1.6027215741222969e-05 -1.6534153159042220e-05 -1.7069230508638441e-05 -1.7634247605767352e-05 -1.8231148338037666e-05 -1.8862034063441294e-05 -1.9529178390526047e-05 -2.0235043546534653e-05 -2.0982298621103573e-05 -2.1773839906332197e-05 -2.2612813488544582e-05 -2.3502640358579225e-05 -2.4447044482380573e-05 -2.5450084280209600e-05 -2.6516187868008854e-05 -2.7650192493905779e-05 -2.8857388848650705e-05 -3.0143571031057914e-05 -3.1515092869371114e-05 -3.2978931387674974e-05 -3.4542758566383897e-05 -3.6215022789010416e-05 -3.8005041339885643e-05 -3.9923105463500438e-05 -4.1980600048175178e-05 -4.4190140466205923e-05 -4.6565729208378412e-05 -4.9122935284223030e-05 -5.1879100313022377e-05 -5.4853576151669991e-05 -5.8067999346425848e-05 -6.1546608463878291e-05 -6.5316612070854066e-05 -6.9408616962437868e-05 -7.3857127592189534e-05 -7.8701129631331091e-05 -8.3984773922922683e-05 -8.9758180737669816e-05 -9.6078387848036115e-05 -1.0301047112199308e-04 -1.1062887339776466e-04 -1.1901898511458967e-04 -1.2827902971379956e-04 -1.3852231995432044e-04 -1.4987996681668759e-04 -1.6250414130404242e-04 -1.7657201462640198e-04 -1.9229053316444295e-04 -2.0990222142112737e-04 -2.2969225462520458e-04 -2.5199710273830311e-04 -2.7721511862821140e-04 -3.0581953270044065e-04 -3.3837442333956556e-04 -3.7555435250350452e-04 -4.1816849096000102e-04 -4.6719019052621517e-04 -5.2379305795111455e-04 -5.8939459462049415e-04 -6.6570826489940546e-04 -7.5480422993757449e-04 -8.5917755237138814e-04 -9.8181974503849714e-04 -1.1262839269843782e-03 -1.2967235579256046e-03 -1.4978664727343591e-03 -1.7348546125918109e-03 -2.0128277234129342e-03 -2.3360442883322693e-03 -2.7061871310863515e-03 -3.1191710376038120e-03 -3.5585380221212172e-03 -3.9772552177417802e-03 -4.2262683559174665e-03 -3.7196136119410639e-03 1.3792072173536064e-04 1.8645785741071709e-02 9.5266257100729501e-02 3.5879183210228799e-01 1.0000000000000000e+00 0.0000000000000000e+00 -7.4233618111136096e-06 -8.5369414535311742e-06 -8.7598667267430329e-06 -8.8134057903353279e-06 -8.8412013435823949e-06 -8.8693825009430312e-06 -8.9024556861991530e-06 -8.9412114456398071e-06 -8.9858391263861041e-06 -9.0364424763727139e-06 -9.0931220940429811e-06 -9.1559885039556035e-06 -9.2251644984037382e-06 -9.3007858705344131e-06 -9.3830019377385250e-06 -9.4719760890803590e-06 -9.5678864020147934e-06 -9.6709263226829174e-06 -9.7813053905040974e-06 -9.8992500066961632e-06 -1.0025004273390225e-05 -1.0158830932733707e-05 -1.0301012408661548e-05 -1.0451851931871891e-05 -1.0611674739520286e-05 -1.0780829372750949e-05 -1.0959689105561829e-05 -1.1148653513986632e-05 -1.1348150168701058e-05 -1.1558636447295077e-05 -1.1780601501458390e-05 -1.2014568427192494e-05 -1.2261096651396223e-05 -1.2520784511644797e-05 -1.2794272022128831e-05 -1.3082243872763715e-05 -1.3385432729401575e-05 -1.3704622863300885e-05 -1.4040654097065024e-05 -1.4394426077231458e-05 -1.4766902942984743e-05 -1.5159118469666377e-05 -1.5572181711455012e-05 -1.6007283139524126e-05 -1.6465701329803388e-05 -1.6948810327285938e-05 -1.7458087795878692e-05 -1.7995123985236733e-05 -1.8561631540337936e-05 -1.9159456275613796e-05 -1.9790589100382935e-05 -2.0457179228760547e-05 -2.1161548746366075e-05 -2.1906208675563222e-05 -2.2693876804060104e-05 -2.3527497540095495e-05 -2.4410263960753373e-05 -2.5345642244175568e-05 -2.6337398853918113e-05 -2.7389630941039532e-05 -2.8506800345526474e-05 -2.9693771550172203e-05 -3.0955854136680713e-05 -3.2298850489058216e-05 -3.3729109458114286e-05 -3.5253586665989757e-05 -3.6879912383537161e-05 -3.8616468243951280e-05 -4.0472474117042089e-05 -4.2458086469358359e-05 -4.4584509887549431e-05 -4.6864123951379722e-05 -4.9310627882334173e-05 -5.1939205589423597e-05 -5.4766714335300340e-05 -5.7811901011180066e-05 -6.1095650573742065e-05 -6.4641271916326186e-05 -6.8474827598417201e-05 -7.2625515039440516e-05 -7.7126108038556827e-05 -8.2013469422035195e-05 -8.7329147942704626e-05 -9.3120074742046688e-05 -9.9439377656348232e-05 -1.0634733599268806e-04 -1.1391250300674843e-04 -1.2221302832732362e-04 -1.3133821974532588e-04 -1.4139039278747494e-04 -1.5248706625480243e-04 -1.6476357410000089e-04 -1.