<?xml version='1.0' encoding='utf-8'?>
<VTKFile type="UnstructuredGrid" version="0.1" byte_order="LittleEndian">
  <UnstructuredGrid>
    <Piece NumberOfPoints="16384" NumberOfCells="16129">
      <PointData>
        <DataArray type="Float64" Name="velocity_u" NumberOfComponents="1">0.0000000000000000e+00 0.0000000000000000e+00 0.0000000000000000e+00 0.0000000000000000e+00 0.0000000000000000e+00 0.0000000000000000e+00 0.0000000000000000e+00 0.0000000000000000e+00 0.0000000000000000e+00 0.0000000000000000e+00 0.0000000000000000e+00 0.0000000000000000e+00 0.0000000000000000e+00 0.0000000000000000e+00 0.0000000000000000e+00 0.0000000000000000e+00 0.0000000000000000e+00 0.0000000000000000e+00 0.0000000000000000e+00 0.0000000000000000e+00 0.0000000000000000e+00 0.0000000000000000e+00 0.0000000000000000e+00 0.0000000000000000e+00 0.0000000000000000e+00 0.0000000000000000e+00 0.0000000000000000e+00 0.0000000000000000e+00 0.0000000000000000e+00 0.0000000000000000e+00 0.0000000000000000e+00 0.0000000000000000e+00 0.0000000000000000e+00 0.0000000000000000e+00 0.0000000000000000e+00 0.0000000000000000e+00 0.0000000000000000e+00 0.0000000000000000e+00 0.0000000000000000e+00 0.0000000000000000e+00 0.0000000000000000e+00 0.0000000000000000e+00 0.0000000000000000e+00 0.0000000000000000e+00 0.0000000000000000e+00 0.0000000000000000e+00 0.0000000000000000e+00 0.0000000000000000e+00 0.0000000000000000e+00 0.0000000000000000e+00 0.0000000000000000e+00 0.0000000000000000e+00 0.0000000000000000e+00 0.0000000000000000e+00 0.0000000000000000e+00 0.0000000000000000e+00 0.0000000000000000e+00 0.0000000000000000e+00 0.0000000000000000e+00 0.0000000000000000e+00 0.0000000000000000e+00 0.0000000000000000e+00 0.0000000000000000e+00 0.0000000000000000e+00 0.0000000000000000e+00 0.0000000000000000e+00 0.0000000000000000e+00 0.0000000000000000e+00 0.0000000000000000e+00 0.0000000000000000e+00 0.0000000000000000e+00 0.0000000000000000e+00 0.0000000000000000e+00 0.0000000000000000e+00 0.0000000000000000e+00 0.0000000000000000e+00 0.0000000000000000e+00 0.0000000000000000e+00 0.0000000000000000e+00 0.0000000000000000e+00 0.0000000000000000e+00 0.0000000000000000e+00 0.0000000000000000e+00 0.0000000000000000e+00 0.0000000000000000e+00 0.0000000000000000e+00 0.0000000000000000e+00 0.0000000000000000e+00 0.0000000000000000e+00 0.0000000000000000e+00 0.0000000000000000e+00 0.0000000000000000e+00 0.0000000000000000e+00 0.0000000000000000e+00 0.0000000000000000e+00 0.0000000000000000e+00 0.0000000000000000e+00 0.0000000000000000e+00 0.0000000000000000e+00 0.0000000000000000e+00 0.0000000000000000e+00 0.0000000000000000e+00 0.0000000000000000e+00 0.0000000000000000e+00 0.0000000000000000e+00 0.0000000000000000e+00 0.0000000000000000e+00 0.0000000000000000e+00 0.0000000000000000e+00 0.0000000000000000e+00 0.0000000000000000e+00 0.0000000000000000e+00 0.0000000000000000e+00 0.0000000000000000e+00 0.0000000000000000e+00 0.0000000000000000e+00 0.0000000000000000e+00 0.0000000000000000e+00 0.0000000000000000e+00 0.0000000000000000e+00 0.0000000000000000e+00 0.0000000000000000e+00 0.0000000000000000e+00 0.0000000000000000e+00 0.0000000000000000e+00 0.0000000000000000e+00 0.0000000000000000e+00 1.0000000000000000e+00 0.0000000000000000e+00 -1.0246381381003547e-06 -1.3758834375432846e-06 -1.4842338475964719e-06 -1.5141083648486534e-06 -1.5234801952276479e-06 -1.5289141173804857e-06 -1.5344465556581544e-06 -1.5409141843276556e-06 -1.5484538081048930e-06 -1.5570795730763804e-06 -1.5667958455045166e-06 -1.5776133007946009e-06 -1.5895487291767193e-06 -1.6026234788912203e-06 -1.6168624948599341e-06 -1.6322938751304966e-06 -1.6489487213765669e-06 -1.6668611295424208e-06 -1.6860682349723337e-06 -1.7066102863437217e-06 -1.7285307611665815e-06 -1.7518765347517980e-06 -1.7766980868969686e-06 -1.8030497141713362e-06 -1.8309897352313616e-06 -1.8605807112948476e-06 -1.8918897122321914e-06 -1.9249886288695573e-06 -1.9599545013536899e-06 -1.9968698438686233e-06 -2.0358229884616220e-06 -2.0769084917077489e-06 -2.1202276157282683e-06 -2.1658888462714184e-06 -2.2140084098828741e-06 -2.2647108062562403e-06 -2.3181294151506863e-06 -2.3744072117948452e-06 -2.4336975614227072e-06 -2.4961650470194727e-06 -2.5619863402250374e-06 -2.6313511778050351e-06 -2.7044634804675310e-06 -2.7815425808590416e-06 -2.8628245191304228e-06 -2.9485634402070279e-06 -3.0390331836003979e-06 -3.1345291049021658e-06 -3.2353700740078266e-06 -3.3419006005494480e-06 -3.4544931492631009e-06 -3.5735507726862569e-06 -3.6995101087312784e-06 -3.8328446864995644e-06 -3.9740685235808715e-06 -4.1237401335997220e-06 -4.2824670876296951e-06 -4.4509111465865301e-06 -4.6297939189284721e-06 -4.8199031347728862e-06 -5.0220997748011187e-06 -5.2373262176261110e-06 -5.4666153967569974e-06 -5.7111010037373775e-06 -5.9720290170800119e-06 -6.2507709152058451e-06 -6.5488387479596408e-06 -6.8679021722595594e-06 -7.2098078217826011e-06 -7.5766016080073458e-06 -7.9705544038650284e-06 -8.3941914043302816e-06 -8.8503257806676506e-06 -9.3420977196958212e-06 -9.8730198968169568e-06 -1.0447030134518043e-05 -1.1068552365113935e-05 -1.1742567968923009e-05 -1.2474699929987082e-05 -1.3271311830826018e-05 -1.4139623937050500e-05 -1.5087850265594609e-05 -1.6125362113085095e-05 -1.7262883755015754e-05 -1.8512726380180724e-05 -1.9889068738919581e-05 -2.1408296364609285e-05 -2.3089413672090610e-05 -2.4954546206747748e-05 -2.7029556009746096e-05 -2.9344800233363063e-05 -3.1936071110616094e-05 -3.4845767328290225e-05 -3.8124363871152077e-05 -4.1832268386586835e-05 -4.6042181554436535e-05 -5.0842122271168436e-05 -5.6339336431352433e-05 -6.2665389049843052e-05 -6.9982860054603052e-05 -7.8494237333314349e-05 -8.8453851608801193e-05 -1.0018407745795920e-04 -1.1409760075526249e-04 -1.3072843512270567e-04 -1.5077575966788135e-04 -1.7516687812773238e-04 -2.0514924013969330e-04 -2.4242757429300031e-04 -2.8937270764902492e-04 -3.4934731142772997e-04 -4.2722803805591593e-04 -5.3026855767858200e-04 -6.6957627578127397e-04 -8.6273737165533057e-04 -1.1386714642480750e-03 -1.5469298635373428e-03 -2.1758226932993671e-03 -3.1868678231206930e-03 -4.8720301591769020e-03 -7.7059901631444348e-03 -1.2177534010522557e-02 -1.7423285238659728e-02 -1.4975487628746419e-02 3.5629654576553052e-02 2.8559133102961864e-01 1.0000000000000000e+00 0.0000000000000000e+00 -2.3993025756487152e-06 -3.1491567296152321e-06 -3.3838771393948115e-06 -3.4517824416415511e-06 -3.4744925008161923e-06 -3.4877564329437635e-06 -3.5008010224668783e-06 -3.5157530429761889e-06 -3.5330522516550570e-06 -3.5527875617349448e-06 -3.5749920431945848e-06 -3.5996994094428207e-06 -3.6269518773884595e-06 -3.6567998767501022e-06 -3.6893011462450514e-06 -3.7245202343787753e-06 -3.7625283410925436e-06 -3.8034033508077445e-06 -3.8472299731711222e-06 -3.8940999719400318e-06 -3.9441124850830155e-06 -3.9973744215146254e-06 -4.0540008983895887e-06 -4.1141156929415295e-06 -4.1778517198558795e-06 -4.2453515691386813e-06 -4.3167681225015029e-06 -4.3922652307772261e-06 -4.4720184276997159e-06 -4.5562156886000541e-06 -4.6450582747271073e-06 -4.7387616888240193e-06 -4.8375567212361817e-06 -4.9416905491615715e-06 -5.0514278950803679e-06 -5.1670523048242679e-06 -5.2888676000231448e-06 -5.4171994967235799e-06 -5.5523973429530708e-06 -5.6948359682604619e-06 -5.8449177072539724e-06 -6.0030746645595099e-06 -6.1697712241973430e-06 -6.3455067694065461e-06 -6.5308186327370763e-06 -6.7262853701837854e-06 -6.9325304363050310e-06 -7.1502262466529407e-06 -7.3800985880845502e-06 -7.6229314362894409e-06 -7.8795723375587383e-06 -8.1509384686890905e-06 -8.4380233702076732e-06 -8.7419043442294373e-06 -9.0637506462441321e-06 -9.4048326851609371e-06 -9.7665323578582248e-06 -1.0150354547813286e-05 -1.0557939912469476e-05 -1.0991079267055998e-05 -1.1451729874687538e-05 -1.1942033791160383e-05 -1.2464338407149911e-05 -1.3021219581934192e-05 -1.3615507945727606e-05 -1.4250318835993532e-05 -1.4929086220918697e-05 -1.5655601195076732e-05 -1.6434055982709674e-05 -1.7269094418492881e-05 -1.8165869749947166e-05 -1.9130110846941135e-05 -2.0168198461644492e-05 -2.1287253495724640e-05 -2.2495239269742136e-05 -2.3801080122125431e-05 -2.5214799389244411e-05 -2.6747680499057227e-05 -2.8412455635794395e-05 -3.0223527598292720e-05 -3.2197231681537945e-05 -3.4352145346484677e-05 -3.6709455275341112e-05 -3.9293394857092449e-05 -4.2131768541279743e-05 -4.5256582072258396e-05 -4.8704802160711011e-05 -5.2519277219605883e-05 -5.6749859757117864e-05 -6.1454780484080263e-05 -6.6702338571432716e-05 -7.2572993470094177e-05 -7.9161969462103257e-05 -8.6582517588632983e-05 -9.4970027472062772e-05 -1.0448724762071417e-04 -1.1533096192134123e-04 -1.2774059451752787e-04 -1.4200939321376929e-04 -1.5849909505154678e-04 -1.7765934130840286e-04 -2.0005364294360759e-04 -2.2639449141902013e-04 -2.5759140009675872e-04 -2.9481748178451805e-04 -3.3960300362131723e-04 -3.9396884473288853e-04 -4.6062002687380469e-04 -5.4323145518746013e-04 -6.4687821969948011e-04 -7.7869784660512245e-04 -9.4893428814026330e-04 -1.1726276468228332e-03 -1.4724280583038798e-03 -1.8834213571612113e-03 -2.4616285198290826e-03 -3.2992035752764295e-03 -4.5511478803423634e-03 -6.4775894581940215e-03 -9.4859753636362971e-03 -1.4051305165181806e-02 -1.9968949710818629e-02 -2.3002590912347964e-02 -3.3365565340988165e-03 1.0422629312383933e-01 4.3379765181496305e-01 1.0000000000000000e+00 0.0000000000000000e+00 -3.8792396041529946e-06 -5.0449077582592651e-06 -5.4084163452626159e-06 -5.5150937657713049e-06 -5.5518764279122514e-06 -5.5736773541226998e-06 -5.5948928921301030e-06 -5.6189790160349545e-06 -5.6467190198225835e-06 -5.6783028103406175e-06 -5.7138068378547422e-06 -5.7532959952266665e-06 -5.7968428532350343e-06 -5.8445303951560065e-06 -5.8964520216072808e-06 -5.9527113947093539e-06 -6.0134224656443307e-06 -6.0787096603703641e-06 -6.1487081889535293e-06 -6.2235644746236048e-06 -6.3034366971392777e-06 -6.3884954201775837e-06 -6.4789242647537423e-06 -6.5749206193972253e-06 -6.6766964166349669e-06 -6.7844790110492721e-06 -6.8985121620912076e-06 -7.0190570960117844e-06 -7.1463936351808371e-06 -7.2808214236333148e-06 -7.4226612908416747e-06 -7.5722567612836769e-06 -7.7299756788320707e-06 -7.8962119308848798e-06 -8.0713873152740094e-06 -8.2559536219522899e-06 -8.4503949586016773e-06 -8.6552302870871199e-06 -8.8710161410409255e-06 -9.0983495655135187e-06 -9.3378713668545839e-06 -9.5902697229158395e-06 -9.8562841386817317e-06 -1.0136709742804720e-05 -1.0432402000922758e-05 -1.0744281958152843e-05 -1.1073342057496584e-05 -1.1420652512781098e-05 -1.1787368265789975e-05 -1.2174736679708445e-05 -1.2584106148107160e-05 -1.3016935693278629e-05 -1.3474805558355541e-05 -1.3959428894990357e-05 -1.4472664792238124e-05 -1.5016532883556186e-05 -1.5593229651498181e-05 -1.6205146560673176e-05 -1.6854890334806082e-05 -1.7545305803608024e-05 -1.8279501638579480e-05 -1.9060879211333482e-05 -1.9893164994572418e-05 -2.0780447202460722e-05 -2.1727217389038527e-05 -2.2738417589207233e-05 -2.3819493714430426e-05 -2.4976456312444423e-05 -2.6215950011068252e-05 -2.7545332905543530e-05 -2.8972767330817338e-05 -3.0507324065441746e-05 -3.2159102473699436e-05 -3.3939369168113059e-05 -3.5860718191808920e-05 -3.7937256855767151e-05 -4.0184822319213177e-05 -4.2621234281348042e-05 -4.5266590081846460e-05 -4.8143611004495496e-05 -5.1278051010443258e-05 -5.4699180207058673e-05 -5.8440357358934270e-05 -6.2539710848874913e-05 -6.7040953361292724e-05 -7.1994360015724767e-05 -7.7457946176779694e-05 -8.3498892720619506e-05 -9.0195280091694859e-05 -9.7638207204485709e-05 -1.0593439301935874e-04 -1.1520938950057128e-04 -1.2561157225207635e-04 -1.3731712515176967e-04 -1.5053630685075661e-04 -1.6552138252549491e-04 -1.8257673271197410e-04 -2.0207183338524480e-04 -2.2445805730075669e-04 -2.5029060453385978e-04 -2.8025738545090959e-04 -3.1521742821922957e-04 -3.5625247670426102e-04 -4.0473707084890992e-04 -4.6243485607181311e-04 -5.3163261768693641e-04 -6.1532936039199637e-04 -7.1750695762272713e-04 -8.4352368554581553e-04 -1.0006961634764795e-03 -1.1991755936524991e-03 -1.4532927164194426e-03 -1.7836639962743415e-03 -2.2205565222432437e-03 -2.8093595220447030e-03 -3.6195652315932215e-03 -4.7593045941878489e-03 -6.3970353756323695e-03 -8.7844633022800475e-03 -1.2235585202735915e-02 -1.6858549132396872e-02 -2.1298049421391456e-02 -1.8245772295835877e-02 1.8231877448547817e-02 1.5564223291546034e-01 4.9370527416873788e-01 1.0000000000000000e+00 0.0000000000000000e+00 -5.3839972356223802e-06 -6.9721694135703257e-06 -7.4648273527155491e-06 -7.6097533558142924e-06 -7.6603791949279086e-06 -7.6907346294522013e-06 -7.7202377574798576e-06 -7.7536031833977794e-06 -7.7919373796417359e-06 -7.8355294587236699e-06 -7.8845019638023766e-06 -7.9389537809289810e-06 -7.9989898855516933e-06 -8.0647271916417783e-06 -8.1362956944606379e-06 -8.2138388370352224e-06 -8.2975138409467973e-06 -8.3874921212473491e-06 -8.4839598132677694e-06 -8.5871184260428921e-06 -8.6971856119901975e-06 -8.8143960184278884e-06 -8.9390021956414080e-06 -9.0712755753494001e-06 -9.2115075601711660e-06 -9.3600107485616834e-06 -9.5171202804684657e-06 -9.6831952781761269e-06 -9.8586203904917894e-06 -1.0043807485138306e-05 -1.0239197525007479e-05 -1.0445262619276044e-05 -1.0662508222596168e-05 -1.0891475496863652e-05 -1.1132743903018236e-05 -1.1386934083764134e-05 -1.1654711036018506e-05 -1.1936787537601220e-05 -1.2233927839340091e-05 -1.2546951706600502e-05 -1.2876738898072897e-05 -1.3224234102277710e-05 -1.3590452316876401e-05 -1.3976484713900697e-05 -1.4383505110563401e-05 -1.4812777149176812e-05 -1.5265662206478062e-05 -1.5743628041528009e-05 -1.6248258298638101e-05 -1.6781263071484936e-05 -1.7344490681810425e-05 -1.7939940718650125e-05 -1.8569778410561402e-05 -1.9236350559701642e-05 -1.9942203345080228e-05 -2.0690102212649115e-05 -2.1483054003896411e-05 -2.2324331607078112e-05 -2.3217501600713864e-05 -2.4166455348896347e-05 -2.5175443884450581e-05 -2.6249116995743652e-05 -2.7392567232776457e-05 -2.8611379712155955e-05 -2.9911688500633878e-05 -3.1300240362571842e-05 -3.2784467021702692e-05 -3.4372567465732460e-05 -3.6073601859091453e-05 -3.7897598661691204e-05 -3.9855677078154479e-05 -4.1960187696490577e-05 -4.4224874486510774e-05 -4.6665061452929288e-05 -4.9297868026700444e-05 -5.2142458705653861e-05 -5.5220333582060164e-05 -5.8555667056754544e-05 -6.2175703328728964e-05 -6.6111219782836913e-05 -7.0397072340325404e-05 -7.5072839449825219e-05 -8.0183584549158509e-05 -8.5780761820383316e-05 -9.1923296722168802e-05 -9.8678880324129666e-05 -1.0612552572950431e-04 -1.1435344756715793e-04 -1.2346734200470701e-04 -1.3358916545525812e-04 -1.4486153766296914e-04 -1.5745193125458025e-04 -1.7155785699120323e-04 -1.8741331753869021e-04 -2.0529688901684985e-04 -2.2554190427774885e-04 -2.4854936835383109e-04 -2.7480445482598191e-04 -3.0489773193937141e-04 -3.3955268561434738e-04 -3.7966170258090507e-04 -4.2633352523659715e-04 -4.8095641028501608e-04 -5.4528300892990058e-04 -6.2154561632339405e-04 -7.1261435608580091e-04 -8.2221678386997280e-04 -9.5524641891121754e-04 -1.1182016286066278e-03 -1.3198179694398242e-03 -1.5719910756841538e-03 -1.8911405974800122e-03 -2.3002489038803451e-03 -2.8319334758973975e-03 -3.5330804667269003e-03 -4.4717066624781424e-03 -5.7464127710416752e-03 -7.4961958615586150e-03 -9.8961049019818444e-03 -1.3075065550498291e-02 -1.6716859244461729e-02 -1.8560284005939398e-02 -9.6769853868339355e-03 3.7234616216100767e-02 1.8468554671745560e-01 5.1420424263714193e-01 1.0000000000000000e+00 0.0000000000000000e+00 -6.8910859099958130e-06 -8.9036774827468563e-06 -9.5256113644808835e-06 -9.7084172180606294e-06 -9.7725932715376644e-06 -9.8113528715071182e-06 -9.8490776219765039e-06 -9.8916900446640217e-06 -9.9405937155884841e-06 -9.9961664768516121e-06 -1.0058573582184093e-05 -1.0127947160700673e-05 -1.0204424600989345e-05 -1.0288156847276995e-05 -1.0379310486127030e-05 -1.0478068603920822e-05 -1.0584631437320316e-05 -1.0699217042809058e-05 -1.0822062058890618e-05 -1.0953422587391090e-05 -1.1093575181795495e-05 -1.1242817915693162e-05 -1.1401471528556086e-05 -1.1569880683187110e-05 -1.1748415374092464e-05 -1.1937472491132572e-05 -1.2137477510683112e-05 -1.2348886300591012e-05 -1.2572187071415426e-05 -1.2807902527774536e-05 -1.3056592241937537e-05 -1.3318855229104112e-05 -1.3595332712958336e-05 -1.3886711124537452e-05 -1.4193725408445632e-05 -1.4517162672456721e-05 -1.4857866160206981e-05 -1.5216739534945592e-05 -1.5594751535107072e-05 -1.5992941107209383e-05 -1.6412423077837776e-05 -1.6854394359757145e-05 -1.7320140702271015e-05 -1.7811044084462219e-05 -1.8328590891030080e-05 -1.8874380947704380e-05 -1.9450137430513620e-05 -2.0057717719662454e-05 -2.0699125388661127e-05 -2.1376523538746288e-05 -2.2092249587528323e-05 -2.2848831575274253e-05 -2.3649006172682584e-05 -2.4495738716986607e-05 -2.5392245581075404e-05 -2.6342019072688175e-05 -2.7348855105658045e-05 -2.8416884089945695e-05 -2.9550605587262072e-05 -3.0754927179500525e-05 -3.2035207967334293e-05 -3.3397307358984142e-05 -3.4847640082656244e-05 -3.6393238359501179e-05 -3.8041822095048785e-05 -3.9801878182709963e-05 -4.1682750463739341e-05 -4.3694742102783357e-05 -4.5849232145137411e-05 -4.8158808337005339e-05 -5.0637418981691846e-05 -5.3300547153299056e-05 -5.6165410892881258e-05 -5.9251193623422477e-05 -6.2579310081499348e-05 -6.6173714108703409e-05 -7.0061255749753859e-05 -7.4272096827536409e-05 -7.8840196207087711e-05 -8.3803877781432756e-05 -8.9206496804728269e-05 -9.5097224594769121e-05 -1.0153197650828717e-04 -1.0857451253060413e-04 -1.1629774632449441e-04 -1.2478530883316635e-04 -1.3413342416961280e-04 -1.4445316831542110e-04 -1.5587319954745132e-04 -1.6854307489493539e-04 -1.8263729733290830e-04 -1.9836027733192047e-04 -2.1595244617127662e-04 -2.3569782910673757e-04 -2.5793347815704349e-04 -2.8306128822107768e-04 -3.1156288876131968e-04 -3.4401853027614632e-04 -3.8113119433130923e-04 -4.2375758432273687e-04 -4.7294824822274433e-04 -5.2999991241609750e-04 -5.9652427415700501e-04 -6.7453915855620130e-04 -7.6659030915754271e-04 -8.7591547891044841e-04 -1.0066673900009564e-03 -1.1642192074446296e-03 -1.3555863852293449e-03 -1.5900133488189919e-03 -1.8797939433375264e-03 -2.2414220460799028e-03 -2.6972020021706834e-03 -3.2774776249863188e-03 -4.0236230842518620e-03 -4.9917320143045094e-03 -6.2560037432066191e-03 -7.9071443596277664e-03 -1.0027196944121342e-02 -1.2571611985458390e-02 -1.4917691834107443e-02 -1.4327682473358281e-02 -1.4069734942526971e-03 5.0470634433619037e-02 1.9917182729865379e-01 5.1975603657978442e-01 1.0000000000000000e+00 0.0000000000000000e+00 -8.3945843680972225e-06 -1.0831376790052970e-05 -1.1582503427115443e-05 -1.1802998654408595e-05 -1.1880531263371651e-05 -1.1927545389554188e-05 -1.1973379528603569e-05 -1.2025144692473312e-05 -1.2084526339297813e-05 -1.2151982185324584e-05 -1.2227715713678983e-05 -1.2311890148111969e-05 -1.2404674206312168e-05 -1.2506252191995187e-05 -1.2616826725313153e-05 -1.2736619963509540e-05 -1.2865874522512801e-05 -1.3004854384735730e-05 -1.3153845887993667e-05 -1.3313158823428572e-05 -1.3483127631533924e-05 -1.3664112684806388e-05 -1.3856501678022879e-05 -1.4060711170545814e-05 -1.4277188306291129e-05 -1.4506412694798164e-05 -1.4748898424863978e-05 -1.5005196220136427e-05 -1.5275895791309916e-05 -1.5561628435969352e-05 -1.5863069889565801e-05 -1.6180943404638387e-05 -1.6516023069205111e-05 -1.6869137428869656e-05 -1.7241173476769428e-05 -1.7633081021319450e-05 -1.8045877412903889e-05 -1.8480652659188134e-05 -1.8938575029024065e-05 -1.9420897241848422e-05 -1.9928963267114988e-05 -2.0464215724868527e-05 -2.1028203946176678e-05 -2.1622592837513629e-05 -2.2249172680429678e-05 -2.2909869914775248e-05 -2.3606758943925575e-05 -2.4342075106486394e-05 -2.5118229043064011e-05 -2.5937822632977429e-05 -2.6803666584623644e-05 -2.7718799814471253e-05 -2.8686510913745426e-05 -2.9710362064381787e-05 -3.0794215667367025e-05 -3.1942263900829175e-05 -3.3159061586089031e-05 -3.4449562926545040e-05 -3.5819162665619022e-05 -3.7273742113115053e-05 -3.8819720619642357e-05 -4.0464113388120139e-05 -4.2214596642699127e-05 -4.4079581088642816e-05 -4.6068294690515107e-05 -4.8190876217647929e-05 -5.0458481349555616e-05 -5.2883403174362353e-05 -5.5479209091447365e-05 -5.8260896765614560e-05 -6.1245072408105771e-05 -6.4450154898630782e-05 -6.7896609711457038e-05 -7.1607217806180542e-05 -7.5607385870172210e-05 -7.9925504889447068e-05 -8.4593365024484971e-05 -8.9646637243445866e-05 -9.5125434878408886e-05 -1.0107496988423491e-04 -1.0754632087993721e-04 -1.1459733508077731e-04 -1.2229369210409359e-04 -1.3071016239837123e-04 -1.3993209967360525e-04 -1.5005721776810364e-04 -1.6119771500484368e-04 -1.7348282255190509e-04 -1.8706187279644141e-04 -2.0210801038715909e-04 -2.1882269953799684e-04 -2.3744122118943297e-04 -2.5823940913138638e-04 -2.8154194431518698e-04 -3.0773261642928713e-04 -3.3726708447449953e-04 -3.7068882991736930e-04 -4.0864920807673913e-04 -4.5193279142838967e-04 -5.0148958660056124e-04 -5.5847622700022279e-04 -6.2430895204512531e-04 -7.0073214897386745e-04 -7.8990754136216187e-04 -8.9453088855512254e-04 -1.0179854652356969e-03 -1.1645447945929515e-03 -1.3396412955091880e-03 -1.5502227475583938e-03 -1.8052245173773226e-03 -2.1161912057597525e-03 -2.4980834786296549e-03 -2.9702959580816318e-03 -3.5578692754149330e-03 -4.2927491405456613e-03 -5.2145692636142967e-03 -6.3692906567701839e-03 -7.8002238368549345e-03 -9.5124529615234210e-03 -1.1343398915458014e-02 -1.2509444313314787e-02 -1.0118736346583401e-02 5.1327592150103808e-03 5.8828371996670056e-02 2.0602253793766037e-01 5.2041886551445360e-01 1.0000000000000000e+00 0.0000000000000000e+00 -9.8926099537833987e-06 -1.2752410446301752e-05 -1.3632428116972882e-05 -1.3890471330053069e-05 -1.3981233177385594e-05 -1.4036378189030376e-05 -1.4090202928042548e-05 -1.4151002799993221e-05 -1.4220739162989662e-05 -1.4299944587087140e-05 -1.4388857344325313e-05 -1.4487669553821859e-05 -1.4596579820992079e-05 -1.4715804758192561e-05 -1.4845582128773944e-05 -1.4986172300937307e-05 -1.5137859372323594e-05 -1.5300952280869610e-05 -1.5475785998209200e-05 -1.5662722827248062e-05 -1.5862153796054503e-05 -1.6074500154560304e-05 -1.6300215012751090e-05 -1.6539785162214981e-05 -1.6793733086776288e-05 -1.7062619133326943e-05 -1.7347043828274589e-05 -1.7647650377083354e-05 -1.7965127412515832e-05 -1.8300212026814320e-05 -1.8653693073888647e-05 -1.9026414727251240e-05 -1.9419280331667257e-05 -1.9833256622284513e-05 -2.0269378355319485e-05 -2.0728753343495376e-05 -2.1212567899135273e-05 -2.1722092759329114e-05 -2.2258689607472810e-05 -2.2823818256431502e-05 -2.3419044489840604e-05 -2.4046048579128492e-05 -2.4706634592037010e-05 -2.5402740655828727e-05 -2.6136450275387114e-05 -2.6910004741799880e-05 -2.7725816721659987e-05 -2.8586485233690095e-05 -2.9494812235515584e-05 -3.0453820949709886e-05 -3.1466776033124324e-05 -3.2537205828562714e-05 -3.3668927072131001e-05 -3.4866072389434848e-05 -3.6133120808623197e-05 -3.7474931588544059e-05 -3.8896781877605258e-05 -4.0404408808297572e-05 -4.2004056534971494e-05 -4.3702528729338187e-05 -4.5507247315267437e-05 -4.7426318468719443e-05 -4.9468606881344510e-05 -5.1643819252648543e-05 -5.3962598291436084e-05 -5.6436628957601211e-05 -5.9078758819196171e-05 -6.1903134412790895e-05 -6.4925355931925012e-05 -6.8162653333422833e-05 -7.1634087398324525e-05 -7.5360779448934903e-05 -7.9366174105538050e-05 -8.3676340813573126e-05 -8.8320321045534065e-05 -9.3330528805047252e-05 -9.8743213262442631e-05 -1.0459899462042064e-04 -1.1094348693078175e-04 -1.1782802394289518e-04 -1.2531050689462440e-04 -1.3345639743676547e-04 -1.4233988437389034e-04 -1.5204525898847746e-04 -1.6266854104551073e-04 -1.7431940735710070e-04 -1.8712348709396965e-04 -2.0122510297073613e-04 -2.1679055659646159e-04 -2.3401208075937669e-04 -2.5311261179494007e-04 -2.7435157451531915e-04 -2.9803192329933464e-04 -3.2450874699635051e-04 -3.5419982823729616e-04 -3.8759865724353522e-04 -4.2529053988644988e-04 -4.6797262074640457e-04 -5.1647888116508286e-04 -5.7181148059968795e-04 -6.3518020909893711e-04 -7.0805234049480328e-04 -7.9221584073726982e-04 -8.8985972618525646e-04 -1.0036764093828503e-03 -1.1369920958550239e-03 -1.2939326340847446e-03 -1.4796334377982009e-03 -1.7005026158480939e-03 -1.9645450410314389e-03 -2.2817492026447439e-03 -2.6645231791508641e-03 -3.1281306810422346e-03 -3.6910016120928913e-03 -4.3746254219288218e-03 -5.2023456395949678e-03 -6.1953082129603109e-03 -7.3603568613759968e-03 -8.6521820175224709e-03 -9.8463882442434442e-03 -1.0104044921405094e-02 -6.5459128843580495e-03 9.8810685677345640e-03 6.3932325653676819e-02 2.0922643965744997e-01 5.1977555125785335e-01 1.0000000000000000e+00 0.0000000000000000e+00 -1.1384117217826621e-05 -1.4665213492972195e-05 -1.5673644066543104e-05 -1.5969077094307638e-05 -1.6072962865177040e-05 -1.6136129729125736e-05 -1.6197825325076789e-05 -1.6267528853481934e-05 -1.6347476039334242e-05 -1.6438272093818445e-05 -1.6540187953883171e-05 -1.6653442880979650e-05 -1.6778263962329216e-05 -1.6914898937893911e-05 -1.7063619636358078e-05 -1.7224723572555757e-05 -1.7398535218703048e-05 -1.7585407283978141e-05 -1.7785722088697806e-05 -1.7999893044358890e-05 -1.8228366236230760e-05 -1.8471622131660790e-05 -1.8730177460475116e-05 -1.9004587297807808e-05 -1.9295447336977632e-05 -1.9603396325029647e-05 -1.9929118671255662e-05 -2.0273347288389982e-05 -2.0636866726913398e-05 -2.1020516613415362e-05 -2.1425195370495104e-05 -2.1851864225228481e-05 -2.2301551569265527e-05 -2.2775357740554253e-05 -2.3274460247091938e-05 -2.3800119423974537e-05 -2.4353684561557318e-05 -2.4936600611131881e-05 -2.5550415569906450e-05 -2.6196788572431181e-05 -2.6877498683252218e-05 -2.7594454458818133e-05 -2.8349704438469710e-05 -2.9145448713297932e-05 -2.9984051636405410e-05 -3.0868055725940291e-05 -3.1800196916644930e-05 -3.2783421397186982e-05 -3.3820904217597686e-05 -3.4916069771449952e-05 -3.6072614323449108e-05 -3.7294530918229748e-05 -3.8586137052528065e-05 -3.9952105384298421e-05 -4.1397497720513001e-05 -4.2927802703868514e-05 -4.4548977800979475e-05 -4.6267496164156963e-05 -4.8090398856700511e-05 -5.0025353089713944e-05 -5.2080717418062311e-05 -5.4265614933697275e-05 -5.6590015405337337e-05 -5.9064827457339087e-05 -6.1702002324053520e-05 -6.4514651018925562e-05 -6.7517176771218036e-05 -7.0725424778870130e-05 -7.4156851943705997e-05 -7.7830719837458648e-05 -8.1768314432657625e-05 -8.5993196610133367e-05 -9.0531488403480153e-05 -9.5412200893640672e-05 -1.0066761051880876e-04 -1.0633369191903697e-04 -1.1245061721261570e-04 -1.1906333311776788e-04 -1.2622222919439480e-04 -1.3398391379190511e-04 -1.4241211808562992e-04 -1.5157875171738677e-04 -1.6156513796276211e-04 -1.7246346361279280e-04 -1.8437848660752550e-04 -1.9742955223393005e-04 -2.1175298014543143e-04 -2.2750490021635077e-04 -2.4486463240323781e-04 -2.6403872664993073e-04 -2.8526580771243669e-04 -3.0882240522648544e-04 -3.3502999175049421e-04 -3.6426350673659337e-04 -3.9696171480853938e-04 -4.3363983321188196e-04 -4.7490497246841971e-04 -5.2147507265639054e-04 -5.7420218830267771e-04 -6.3410118409493936e-04 -7.0238515955532851e-04 -7.8050922162626463e-04 -8.7022456161262279e-04 -9.7364514773513086e-04 -1.0933296508159563e-03 -1.2323813507873506e-03 -1.3945684825828193e-03 -1.5844662843464967e-03 -1.8076190400667124e-03 -2.0707140869647557e-03 -2.3817472825533011e-03 -2.7501359532791400e-03 -3.1866923564249213e-03 -3.7032924580418440e-03 -4.3119266065960813e-03 -5.0224974610173292e-03 -5.8378476574350927e-03 -6.7414565420894790e-03 -7.6616180250952716e-03 -8.3519622116873405e-03 -7.9755424725380403e-03 -3.7248523003911441e-03 1.3214564593349106e-02 6.7056787633639897e-02 2.1074531578700267e-01 5.1893795148099364e-01 1.0000000000000000e+00 0.0000000000000000e+00 -1.2868197154747226e-05 -1.6568523743849689e-05 -1.7704754061189045e-05 -1.8037382902544039e-05 -1.8154285004664979e-05 -1.8225366338725948e-05 -1.8294808845004732e-05 -1.8373273629062729e-05 -1.8463270477066857e-05 -1.8565476405900856e-05 -1.8680193803367408e-05 -1.8807667777581717e-05 -1.8948152647987880e-05 -1.9101926085304917e-05 -1.9269292799348730e-05 -1.9450586236442059e-05 -1.9646169964785296e-05 -1.9856439098472956e-05 -2.0081821831905585e-05 -2.0322781085492942e-05 -2.0579816266501112e-05 -2.0853465180489579e-05 -2.1144306139183539e-05 -2.1452960279137929e-05 -2.1780094069372834e-05 -2.2126421994953499e-05 -2.2492709453589725e-05 -2.2879775933342656e-05 -2.3288498511275931e-05 -2.3719815661299957e-05 -2.4174731355232373e-05 -2.4654319494287822e-05 -2.5159728750172310e-05 -2.5692187869526767e-05 -2.6253011442083887e-05 -2.6843606137560971e-05 -2.7465477485730874e-05 -2.8120237316919573e-05 -2.8809611933499395e-05 -2.9535451014496879e-05 -3.0299737276542408e-05 -3.1104597015154740e-05 -3.1952311699369828e-05 -3.2845330728771838e-05 -3.3786285395084428e-05 -3.4778004145233986e-05 -3.5823529359255302e-05 -3.6926135871602704e-05 -3.8089351373385548e-05 -3.9316978816243960e-05 -4.0613121078881973e-05 -4.1982208283059405e-05 -4.3429028092657202e-05 -4.4958759226658172e-05 -4.6577008502279181e-05 -4.8289851944031527e-05 -5.0103880568472852e-05 -5.2026251353314891e-05 -5.4064743926641883e-05 -5.6227823783156174e-05 -5.8524713041923639e-05 -6.0965469705198418e-05 -6.3561076373626428e-05 -6.6323539715640529e-05 -6.9266002386936823e-05 -7.2402869174526463e-05 -7.5749949188433455e-05 -7.9324616405324191e-05 -8.3145991493782534e-05 -8.7235148093102235e-05 -9.1615346952566974e-05 -9.6312302246656707e-05 -1.0135448549537393e-04 -1.0677347300051236e-04 -1.1260434325168945e-04 -1.1888613254424152e-04 -1.2566235922861641e-04 -1.3298162811520227e-04 -1.4089832786127373e-04 -1.4947343764747052e-04 -1.5877546357186291e-04 -1.6888152790219707e-04 -1.7987863805266587e-04 -1.9186516918707507e-04 -2.0495260178876509e-04 -2.1926756222090643e-04 -2.3495422463443342e-04 -2.5217714688549272e-04 -2.7112462750878932e-04 -2.9201268844199880e-04 -3.1508981321265672e-04 -3.4064259870037475e-04 -3.690