<?xml version='1.0' encoding='utf-8'?>
<VTKFile type="UnstructuredGrid" version="0.1" byte_order="LittleEndian">
  <UnstructuredGrid>
    <Piece NumberOfPoints="16384" NumberOfCells="16129">
      <PointData>
        <DataArray type="Float64" Name="velocity_u" NumberOfComponents="1">0.0000000000000000e+00 0.0000000000000000e+00 0.0000000000000000e+00 0.0000000000000000e+00 0.0000000000000000e+00 0.0000000000000000e+00 0.0000000000000000e+00 0.0000000000000000e+00 0.0000000000000000e+00 0.0000000000000000e+00 0.0000000000000000e+00 0.0000000000000000e+00 0.0000000000000000e+00 0.0000000000000000e+00 0.0000000000000000e+00 0.0000000000000000e+00 0.0000000000000000e+00 0.0000000000000000e+00 0.0000000000000000e+00 0.0000000000000000e+00 0.0000000000000000e+00 0.0000000000000000e+00 0.0000000000000000e+00 0.0000000000000000e+00 0.0000000000000000e+00 0.0000000000000000e+00 0.0000000000000000e+00 0.0000000000000000e+00 0.0000000000000000e+00 0.0000000000000000e+00 0.0000000000000000e+00 0.0000000000000000e+00 0.0000000000000000e+00 0.0000000000000000e+00 0.0000000000000000e+00 0.0000000000000000e+00 0.0000000000000000e+00 0.0000000000000000e+00 0.0000000000000000e+00 0.0000000000000000e+00 0.0000000000000000e+00 0.0000000000000000e+00 0.0000000000000000e+00 0.0000000000000000e+00 0.0000000000000000e+00 0.0000000000000000e+00 0.0000000000000000e+00 0.0000000000000000e+00 0.0000000000000000e+00 0.0000000000000000e+00 0.0000000000000000e+00 0.0000000000000000e+00 0.0000000000000000e+00 0.0000000000000000e+00 0.0000000000000000e+00 0.0000000000000000e+00 0.0000000000000000e+00 0.0000000000000000e+00 0.0000000000000000e+00 0.0000000000000000e+00 0.0000000000000000e+00 0.0000000000000000e+00 0.0000000000000000e+00 0.0000000000000000e+00 0.0000000000000000e+00 0.0000000000000000e+00 0.0000000000000000e+00 0.0000000000000000e+00 0.0000000000000000e+00 0.0000000000000000e+00 0.0000000000000000e+00 0.0000000000000000e+00 0.0000000000000000e+00 0.0000000000000000e+00 0.0000000000000000e+00 0.0000000000000000e+00 0.0000000000000000e+00 0.0000000000000000e+00 0.0000000000000000e+00 0.0000000000000000e+00 0.0000000000000000e+00 0.0000000000000000e+00 0.0000000000000000e+00 0.0000000000000000e+00 0.0000000000000000e+00 0.0000000000000000e+00 0.0000000000000000e+00 0.0000000000000000e+00 0.0000000000000000e+00 0.0000000000000000e+00 0.0000000000000000e+00 0.0000000000000000e+00 0.0000000000000000e+00 0.0000000000000000e+00 0.0000000000000000e+00 0.0000000000000000e+00 0.0000000000000000e+00 0.0000000000000000e+00 0.0000000000000000e+00 0.0000000000000000e+00 0.0000000000000000e+00 0.0000000000000000e+00 0.0000000000000000e+00 0.0000000000000000e+00 0.0000000000000000e+00 0.0000000000000000e+00 0.0000000000000000e+00 0.0000000000000000e+00 0.0000000000000000e+00 0.0000000000000000e+00 0.0000000000000000e+00 0.0000000000000000e+00 0.0000000000000000e+00 0.0000000000000000e+00 0.0000000000000000e+00 0.0000000000000000e+00 0.0000000000000000e+00 0.0000000000000000e+00 0.0000000000000000e+00 0.0000000000000000e+00 0.0000000000000000e+00 0.0000000000000000e+00 0.0000000000000000e+00 0.0000000000000000e+00 0.0000000000000000e+00 0.0000000000000000e+00 0.0000000000000000e+00 1.0000000000000000e+00 0.0000000000000000e+00 -1.2029133114095149e-06 -1.8629876243788069e-06 -2.1491135094916722e-06 -2.2553991253154479e-06 -2.2920621892805153e-06 -2.3064814191958822e-06 -2.3157075099523129e-06 -2.3250098203990341e-06 -2.3357615794448259e-06 -2.3482341185060218e-06 -2.3624481373243891e-06 -2.3783936979300946e-06 -2.3960735352473413e-06 -2.4155054639452418e-06 -2.4367185725692937e-06 -2.4597501665811832e-06 -2.4846440415486938e-06 -2.5114496305162416e-06 -2.5402216212250311e-06 -2.5710198234544150e-06 -2.6039092006323157e-06 -2.6389600327636357e-06 -2.6762481705261128e-06 -2.7158553272711936e-06 -2.7578693788065990e-06 -2.8023846874016792e-06 -2.8495024875585393e-06 -2.8993313433639533e-06 -2.9519876460544195e-06 -3.0075961217664450e-06 -3.0662903661081705e-06 -3.1282134563299160e-06 -3.1935186651063198e-06 -3.2623702412608068e-06 -3.3349442098574910e-06 -3.4114292013111089e-06 -3.4920273794129481e-06 -3.5769555216241495e-06 -3.6664462285891603e-06 -3.7607492037584851e-06 -3.8601326001052745e-06 -3.9648845071289232e-06 -4.0753146425678087e-06 -4.1917562314438660e-06 -4.3145680206562945e-06 -4.4441364509933039e-06 -4.5808780912513662e-06 -4.7252424059389907e-06 -4.8777148175691551e-06 -5.0388200033540477e-06 -5.2091254859919110e-06 -5.3892456800870959e-06 -5.5798464904985181e-06 -5.7816504224085773e-06 -5.9954421717636036e-06 -6.2220748250947539e-06 -6.4624768754401010e-06 -6.7176601415230109e-06 -6.9887285686128571e-06 -7.2768880079478391e-06 -7.5834572710426685e-06 -7.9098807323948413e-06 -8.2577425570287617e-06 -8.6287826267470320e-06 -9.0249145166867645e-06 -9.4482460482904321e-06 -9.9011027872859092e-06 -1.0386054722010360e-05 -1.0905946611782369e-05 -1.1463932843494646e-05 -1.2063517607667935e-05 -1.2708601036964040e-05 -1.3403532228005286e-05 -1.4153170636048041e-05 -1.4962957510472630e-05 -1.5838998937880704e-05 -1.6788162494043021e-05 -1.7818190411610285e-05 -1.8937832618269803e-05 -2.0157003173575454e-05 -2.1486964815481862e-05 -2.2940548255647289e-05 -2.4532413803113972e-05 -2.6279363409320123e-05 -2.8200714081845054e-05 -3.0318748411319744e-05 -3.2659261211139605e-05 -3.5252223847358666e-05 -3.8132594763341747e-05 -4.1341315620476921e-05 -4.4926542836903232e-05 -4.8945176852908504e-05 -5.3464772781644552e-05 -5.8565944849523944e-05 -6.4345411906170191e-05 -7.0919881545473056e-05 -7.8431043690119687e-05 -8.7052043558050063e-05 -9.6995943868946559e-05 -1.0852689239838311e-04 -1.2197500971931567e-04 -1.3775644982980131e-04 -1.5640074728269827e-04 -1.7858857269337539e-04 -2.0520457702378309e-04 -2.3741247018191954e-04 -2.7676346207628237e-04 -3.2535576666964871e-04 -3.8607400461501028e-04 -4.6295674325716582e-04 -5.6177519739585003e-04 -6.9097023941535034e-04 -8.6321562932398731e-04 -1.0981040102230708e-03 -1.4268737487363702e-03 -1.9008025766410930e-03 -2.6057907432006523e-03 -3.6856432158307857e-03 -5.3710190705845871e-03 -7.9854559565343923e-03 -1.1816993575769260e-02 -1.6517492672475473e-02 -1.9097434267585419e-02 -7.7276933693397869e-03 5.8851667350217921e-02 3.1561629943926323e-01 1.0000000000000000e+00 0.0000000000000000e+00 -3.0646108769874116e-06 -4.5258561069729850e-06 -5.1683354671388585e-06 -5.4182607258597664e-06 -5.5105761118227041e-06 -5.5493657055825302e-06 -5.5740450021716155e-06 -5.5977226550608885e-06 -5.6242509469931404e-06 -5.6546151793469042e-06 -5.6890295855548415e-06 -5.7275451179352632e-06 -5.7702016330785214e-06 -5.8170570032283014e-06 -5.8681882945305858e-06 -5.9236888302608235e-06 -5.9836658967165331e-06 -6.0482394793968889e-06 -6.1175417163488450e-06 -6.1917168118212387e-06 -6.2709212688674761e-06 -6.3553243459890385e-06 -6.4451086502513106e-06 -6.5404708035485703e-06 -6.6416221734571055e-06 -6.7487897037637096e-06 -6.8622168731195441e-06 -6.9821647671532431e-06 -7.1089132296067503e-06 -7.2427620902614713e-06 -7.3840325137801076e-06 -7.5330685114167569e-06 -7.6902386063624777e-06 -7.8559376119306332e-06 -8.0305885206528478e-06 -8.2146445722661636e-06 -8.4085915790236029e-06 -8.6129505178947721e-06 -8.8282803381015223e-06 -9.0551809643455650e-06 -9.2942965665799649e-06 -9.5463191991117053e-06 -9.8119928450588116e-06 -1.0092117836724056e-05 -1.0387555662023473e-05 -1.0699234264763850e-05 -1.1028153961184237e-05 -1.1375394000875485e-05 -1.1742119744229442e-05 -1.2129590521279808e-05 -1.2539168372369766e-05 -1.2972327860846843e-05 -1.3430667009984026e-05 -1.3915919372765660e-05 -1.4429967393072719e-05 -1.4974857365368650e-05 -1.5552816246866094e-05 -1.6166270443844125e-05 -1.6817866755532024e-05 -1.7510495888763273e-05 -1.8247319040128324e-05 -1.9031797892423161e-05 -1.9867728321796785e-05 -2.0759278385333298e-05 -2.1711031458794177e-05 -2.2728035364014566e-05 -2.3815858188576973e-05 -2.4980651732564856e-05 -2.6229224010798103e-05 -2.7569122444510521e-05 -2.9008729303189353e-05 -3.0557371252442673e-05 -3.2225445663236923e-05 -3.4024566931052246e-05 -3.5967736178357644e-05 -3.8069538209041642e-05 -4.0346370975818244e-05 -4.2816714281777095e-05 -4.5501445250588715e-05 -4.8424209202363063e-05 -5.1611857156306793e-05 -5.5094964632419459e-05 -5.8908449430589531e-05 -6.3092309220381924e-05 -6.7692505074451936e-05 -7.2762024962967761e-05 -7.8362170367728097e-05 -8.4564119690686641e-05 -9.1450836562392127e-05 -9.9119411258645869e-05 -1.0768394930060232e-04 -1.1727915509081398e-04 -1.2806480457457138e-04 -1.4023136295254456e-04 -1.5400708718470260e-04 -1.6966706970168198e-04 -1.8754484153539504e-04 -2.0804737725562932e-04 -2.3167466414780543e-04 -2.5904545886487639e-04 -2.9093151824882365e-04 -3.2830356734833677e-04 -3.7239372796124754e-04 -4.2478133432399064e-04 -4.8751245006867819e-04 -5.6326870931118435e-04 -6.5560956583889920e-04 -7.6932581022836472e-04 -9.1096515474440979e-04 -1.0896297489353525e-03 -1.3182135142592478e-03 -1.6153677973401762e-03 -2.0086990234980330e-03 -2.5400785295399977e-03 -3.2745540474775066e-03 -4.3151216840462674e-03 -5.8257120304036868e-03 -8.0605379611412876e-03 -1.1377465752840142e-02 -1.6143394460882601e-02 -2.2244020272978570e-02 -2.7435256499880118e-02 -2.2749192185251281e-02 1.8580841253147566e-02 1.6065870395396026e-01 4.9811815157907735e-01 1.0000000000000000e+00 0.0000000000000000e+00 -5.2085932277419090e-06 -7.5397701180692776e-06 -8.5571074584224835e-06 -8.9583650466299546e-06 -9.1113858054971243e-06 -9.1782803249518525e-06 -9.2213028596380848e-06 -9.2618075520889913e-06 -9.3064318312464344e-06 -9.3570655720776651e-06 -9.4142226795620981e-06 -9.4780716115305276e-06 -9.5487202086151519e-06 -9.6262848007919237e-06 -9.7109031136140051e-06 -9.8027347206121837e-06 -9.9019597547125365e-06 -1.0008778014763755e-05 -1.0123408669362825e-05 -1.0246090447160103e-05 -1.0377082196368162e-05 -1.0516663705037819e-05 -1.0665136687907006e-05 -1.0822825892520222e-05 -1.0990080338396837e-05 -1.1167274728806905e-05 -1.1354811046372196e-05 -1.1553120303735448e-05 -1.1762664425332153e-05 -1.1983938284220748e-05 -1.2217471948935373e-05 -1.2463833168254073e-05 -1.2723630071930063e-05 -1.2997514067274444e-05 -1.3286182974329111e-05 -1.3590384490744046e-05 -1.3910920044183723e-05 -1.4248649013184212e-05 -1.4604493281783375e-05 -1.4979442170005214e-05 -1.5374557858855809e-05 -1.5790981406861481e-05 -1.6229939372407595e-05 -1.6692751039848709e-05 -1.7180836333681638e-05 -1.7695724578047521e-05 -1.8239064213280251e-05 -1.8812633493268163e-05 -1.9418352214176383e-05 -2.0058294667051132e-05 -2.0734704080584699e-05 -2.1450008727262832e-05 -2.2206839762856648e-05 -2.3008050951172542e-05 -2.3856740620008562e-05 -2.4756276250027914e-05 -2.5710321982079826e-05 -2.6722869298994160e-05 -2.7798271338032050e-05 -2.8941281490350438e-05 -3.0157096901569189e-05 -3.1451407384479870e-05 -3.2830450435137149e-05 -3.4301073424115213e-05 -3.5870804195344574e-05 -3.7547931210657018e-05 -3.9341594498057643e-05 -4.1261889181208457e-05 -4.3319983828546106e-05 -4.5528255967202480e-05 -4.7900447329995534e-05 -5.0451842184548908e-05 -5.3199473012152725e-05 -5.6162358344259744e-05 -5.9361778165482060e-05 -6.2821593623530052e-05 -6.6568619533662805e-05 -7.0633059765591916e-05 -7.5049017520498242e-05 -7.9855095345178598e-05 -8.5095103068514685e-05 -9.0818895637356906e-05 -9.7083368314482407e-05 -1.0395364405740029e-04 -1.1150449580414880e-04 -1.1982205592995231e-04 -1.2900587963707172e-04 -1.3917144842958844e-04 -1.5045322205451089e-04 -1.6300837589927115e-04 -1.7702140192728567e-04 -1.9270980548577091e-04 -2.1033119930351723e-04 -2.3019219009136268e-04 -2.5265958369081884e-04 -2.7817461099617863e-04 -3.0727111835152337e-04 -3.4059900540456820e-04 -3.7895467156503603e-04 -4.2332090948424782e-04 -4.7491965871774872e-04 -5.3528245477410552e-04 -6.0634550326481621e-04 -6.9057943680325327e-04 -7.9116855966281097e-04 -9.1226169235859541e-04 -1.0593281561432795e-03 -1.2396706301944205e-03 -1.4631760661286608e-03 -1.7434343165989186e-03 -2.0994350025154893e-03 -2.5581886648037336e-03 -3.1588417678347280e-03 -3.9592002067033961e-03 -5.0460046327256832e-03 -6.5504073128448779e-03 -8.6681001116187453e-03 -1.1673295490426290e-02 -1.5879245991585196e-02 -2.1389827018578014e-02 -2.7212464103203996e-02 -2.8723729889748049e-02 -1.1636619820856059e-02 5.8813658857900075e-02 2.4375508303246274e-01 5.8732516981619565e-01 1.0000000000000000e+00 0.0000000000000000e+00 -7.4520619751430732e-06 -1.0687663712073289e-05 -1.2086568120209218e-05 -1.2639038200544167e-05 -1.2852458329932133e-05 -1.2947839523479094e-05 -1.3009956870247868e-05 -1.3068148217715776e-05 -1.3131745896881749e-05 -1.3203540411820845e-05 -1.3284366154713098e-05 -1.3374530253282688e-05 -1.3474224232586018e-05 -1.3583633548349150e-05 -1.3702963862723168e-05 -1.3832446267161221e-05 -1.3972337912408629e-05 -1.4122922041570951e-05 -1.4284508273093221e-05 -1.4457433255873666e-05 -1.4642061656207581e-05 -1.4838787394854607e-05 -1.5048035066234239e-05 -1.5270261525689388e-05 -1.5505957679021065e-05 -1.5755650506276802e-05 -1.6019905309159405e-05 -1.6299328149018518e-05 -1.6594568474144847e-05 -1.6906321986751942e-05 -1.7235333806815607e-05 -1.7582401943494054e-05 -1.7948381051758945e-05 -1.8334186485282553e-05 -1.8740798723690045e-05 -1.9169268264948950e-05 -1.9620721011074872e-05 -2.0096364121580254e-05 -2.0597492346725089e-05 -2.1125494945252767e-05 -2.1681863322467637e-05 -2.2268199457846419e-05 -2.2886225129745955e-05 -2.3537791990870199e-05 -2.4224892651219964e-05 -2.4949672944697411e-05 -2.5714445473169371e-05 -2.6521704482625128e-05 -2.7374142229814700e-05 -2.8274667129046261e-05 -2.9226423954178971e-05 -3.0232816251993440e-05 -3.1297531120483133e-05 -3.2424566685070410e-05 -3.3618262755497091e-05 -3.4883335096439337e-05 -3.6224913653477552e-05 -3.7648585195935068e-05 -3.9160441095005889e-05 -4.0767131044271013e-05 -4.2475923433584172e-05 -4.4294773151777883e-05 -4.6232397958871417e-05 -4.8298364888836510e-05 -5.0503188157357954e-05 -5.2858440077277545e-05 -5.5376876923499649e-05 -5.8072582296631122e-05 -6.0961130834953949e-05 -6.4059775321581870e-05 -6.7387660921812352e-05 -7.0966071345768199e-05 -7.4818712509327500e-05 -7.8972039903338082e-05 -8.3455637237350526e-05 -8.8302655953828726e-05 -9.3550326969682284e-05 -9.9240557716679837e-05 -1.0542063066057870e-04 -1.1214402391820348e-04 -1.1947137870027444e-04 -1.2747164256593082e-04 -1.3622342473534199e-04 -1.4581661013986775e-04 -1.5635428967935406e-04 -1.6795507628621014e-04 -1.8075589484079028e-04 -1.9491535927764573e-04 -2.1061787952077220e-04 -2.2807867816909892e-04 -2.4754994956482446e-04 -2.6932846278467847e-04 -2.9376499786163822e-04 -3.2127612455554096e-04 -3.5235899704927142e-04 -3.8761005630004035e-04 -4.2774883121851008e-04 -4.7364844785321379e-04 -5.2637503429739418e-04 -5.8723902104366294e-04 -6.5786249566469597e-04 -7.4026843190824396e-04 -8.3700002031635696e-04 -9.5128186532165916e-04 -1.0872400645017518e-03 -1.2502060698502977e-03 -1.4471412241766526e-03 -1.6872373125130034e-03 -1.9827771342408275e-03 -2.3503839872761052e-03 -2.8128592081366564e-03 -3.4019149002819824e-03 -4.1622647474160229e-03 -5.1577177176989324e-03 -6.4799586119910109e-03 -8.2598801380778988e-03 -1.0677149293782828e-02 -1.3948409541504329e-02 -1.8226975144013557e-02 -2.3217513106977099e-02 -2.7009278333125990e-02 -2.3102920787055798e-02 5.7060230596020405e-03 9.5318380968496250e-02 2.9634512845752675e-01 6.2719121407540523e-01 1.0000000000000000e+00 0.0000000000000000e+00 -9.7223503587536611e-06 -1.3877196676669769e-05 -1.5661029715520912e-05 -1.6363891154371151e-05 -1.6636510822918847e-05 -1.6759739020819685e-05 -1.6840787792347590e-05 -1.6916749513853863e-05 -1.6999502349411266e-05 -1.7092669696494147e-05 -1.7197383499312566e-05 -1.7314085475936937e-05 -1.7443052898779323e-05 -1.7584543534716817e-05 -1.7738833718487943e-05 -1.7906228063587578e-05 -1.8087062117985311e-05 -1.8281703498737607e-05 -1.8490552899902000e-05 -1.8714045308117410e-05 -1.8952651470894623e-05 -1.9206879583296801e-05 -1.9477277169102679e-05 -1.9764433179589291e-05 -2.0068980353591751e-05 -2.0391597852782917e-05 -2.0733014144910730e-05 -2.1094010113153413e-05 -2.1475422423078339e-05 -2.1878147218016755e-05 -2.2303144190634875e-05 -2.2751441025214015e-05 -2.3224138198872224e-05 -2.3722414188097764e-05 -2.4247531178405250e-05 -2.4800841350515692e-05 -2.5383793749064656e-05 -2.5997941730032323e-05 -2.6644951060426957e-05 -2.7326608816101695e-05 -2.8044833197244276e-05 -2.8801684299505905e-05 -2.9599375871502203e-05 -3.0440288187282933e-05 -3.1326982242051487e-05 -3.2262215438082918e-05 -3.3248958846492254e-05 -3.4290416166342312e-05 -3.5390044646390688e-05 -3.6551578304661939e-05 -3.7779053696236807e-05 -3.9076838408193257e-05 -4.0449662576636235e-05 -4.1902653922173802e-05 -4.3441376844748203e-05 -4.5071876015313548e-05 -4.6800724921760111e-05 -4.8635080070142476e-05 -5.0582741748971203e-05 -5.2652222236516255e-05 -5.4852822300163341e-05 -5.7194717108757970e-05 -5.9689053090342944e-05 -6.2348057427320989e-05 -6.5185161869018034e-05 -6.8215142836113742e-05 -7.1454280439115585e-05 -7.4920539527006182e-05 -7.8633776088104525e-05 -8.2615972821060599e-05 -8.6891508760261681e-05 -9.1487468892236589e-05 -9.6434000378205014e-05 -1.0176472300674728e-04 -1.0751720345348754e-04 -1.1373350519531790e-04 -1.2046082783433574e-04 -1.2775225189204180e-04 -1.3566760893790738e-04 -1.4427450184944309e-04 -1.5364950513292481e-04 -1.6387958113513466e-04 -1.7506375621811671e-04 -1.8731511203342761e-04 -2.0076316036558975e-04 -2.1555668609858929e-04 -2.3186716373678980e-04 -2.4989288037794116e-04 -2.6986393308419049e-04 -2.9204831351478910e-04 -3.1675935150932534e-04 -3.4436486623204405e-04 -3.7529847457557435e-04 -4.1007364147378528e-04 -4.4930123645375175e-04 -4.9371160081552567e-04 -5.4418245686932106e-04 -6.0177443730536370e-04 -6.6777662295992141e-04 -7.4376532451267202e-04 -8.3168052879394863e-04 -9.3392609260128684e-04 -1.0535021269300286e-03 -1.1941813915971038e-03 -1.3607463762290869e-03 -1.5593107869194061e-03 -1.7977594249257176e-03 -2.0863554395386258e-03 -2.4385858248797371e-03 -2.8723476350032418e-03 -3.4116216637963943e-03 -4.0888374670544209e-03 -4.9481895496875693e-03 -6.0501502303189000e-03 -7.4770777059840502e-03 -9.3382392933188171e-03 -1.1766904959931379e-02 -1.4884068795508134e-02 -1.8651006431525369e-02 -2.2398546944032708e-02 -2.3534124335280734e-02 -1.4517057954532040e-02 2.2655328944998162e-02 1.2183649144342615e-01 3.2502395902148440e-01 6.4216052527764000e-01 1.0000000000000000e+00 0.0000000000000000e+00 -1.1994170147850955e-05 -1.7072781938838757e-05 -1.9243003903928974e-05 -2.0095814202841897e-05 -2.0426765178925319e-05 -2.0577164147295003e-05 -2.0676741723698184e-05 -2.0770257388587422e-05 -2.0872042162126173e-05 -2.0986492724351732e-05 -2.1115007752501525e-05 -2.1258149792518310e-05 -2.1416276503143227e-05 -2.1589716184634912e-05 -2.1778815337508131e-05 -2.1983951869037682e-05 -2.2205539398265777e-05 -2.2444029377283545e-05 -2.2699912804693747e-05 -2.2973722006929282e-05 -2.3266032596751044e-05 -2.3577465622088962e-05 -2.3908689927591398e-05 -2.4260424778978080e-05 -2.4633442789858794e-05 -2.5028573144704797e-05 -2.5446705087888035e-05 -2.5888791684628387e-05 -2.6355853918747474e-05 -2.6848985204140109e-05 -2.7369356337802949e-05 -2.7918220879227756e-05 -2.8496920966903284e-05 -2.9106893650797844e-05 -2.9749677841745572e-05 -3.0426921926999033e-05 -3.1140392054221854e-05 -3.1891981124605499e-05 -3.2683718623936005e-05 -3.3517781444618322e-05 -3.4396505781485827e-05 -3.5322400128391281e-05 -3.6298159462360306e-05 -3.7326680817055884e-05 -3.8411080470429279e-05 -3.9554712888173902e-05 -4.0761191527419404e-05 -4.2034411712624711e-05 -4.3378575926257657e-05 -4.4798221844705150e-05 -4.6298253350336935e-05 -4.7883974779727824e-05 -4.9561128863881705e-05 -5.1335938954083012e-05 -5.3215156066783254e-05 -5.5206111216230581e-05 -5.7316773670401634e-05 -5.9555816042947396e-05 -6.1932687219383927e-05 -6.4457694047531940e-05 -6.7142092856948058e-05 -6.9998192281055081e-05 -7.3039469163378628e-05 -7.6280699356966755e-05 -7.9738105363974681e-05 -8.3429523323589220e-05 -8.7374592493944824e-05 -9.1594970686886438e-05 -9.6114579440438036e-05 -1.0095988358264388e-04 -1.0616021098791865e-04 -1.1174811918706820e-04 -1.1775981636153841e-04 -1.2423564583481645e-04 -1.3122064527119277e-04 -1.3876519381608214e-04 -1.4692576277557982e-04 -1.5576578882412826e-04 -1.6535669273471065e-04 -1.7577907101550534e-04 -1.8712409385267191e-04 -1.9949515086989514e-04 -2.1300979510448700e-04 -2.2780204591636667e-04 -2.4402512641383958e-04 -2.6185473050229744e-04 -2.8149293672904421e-04 -3.0317291374698882e-04 -3.2716460075830033e-04 -3.5378159532716696e-04 -3.8338954094416217e-04 -4.1641638628952637e-04 -4.5336499449288875e-04 -4.9482871724685078e-04 -5.4151072764104435e-04 -5.9424814616944527e-04 -6.5404231433421694e-04 -7.2209699675911251e-04 -7.9986686979983393e-04 -8.8911943765805884e-04 -9.9201458038604613e-04 -1.1112073930973473e-03 -1.2499819746980459e-03 -1.4124265694524065e-03 -1.6036642381503340e-03 -1.8301584101114736e-03 -2.1001196914368935e-03 -2.4240496839650380e-03 -2.8154696742407441e-03 -3.2918965752311521e-03 -3.8761429738607047e-03 -4.5980233719793906e-03 -5.4965149698935579e-03 -6.6222540977568913e-03 -8.0396469552843700e-03 -9.8258815350880206e-03 -1.2057832055481697e-02 -1.4758936202566146e-02 -1.7725489164377026e-02 -2.0021917900582178e-02 -1.8675246395040455e-02 -5.7940850235384967e-03 3.6269727597163702e-02 1.3879607852248074e-01 3.3872256797042383e-01 6.4544568236794386e-01 1.0000000000000000e+00 0.0000000000000000e+00 -1.4259293668140400e-05 -2.0261228563561820e-05 -2.2817921451739074e-05 -2.3820378161979889e-05 -2.4209149624814537e-05 -2.4386228067315216e-05 -2.4503944417685199e-05 -2.4614714945720690e-05 -2.4735286012166458e-05 -2.4870793543323694e-05 -2.5022879927123653e-05 -2.5192214988576077e-05 -2.5379229343117301e-05 -2.5584317790812953e-05 -2.5807894634965544e-05 -2.6050409418737092e-05 -2.6312352383393127e-05 -2.6594257337549243e-05 -2.6896703965161200e-05 -2.7220320119607458e-05 -2.7565784247610447e-05 -2.7933827993781081e-05 -2.8325239042928312e-05 -2.8740864262265496e-05 -2.9181613169321162e-05 -2.9648461706116300e-05 -3.0142456304352248e-05 -3.0664718283501427e-05 -3.1216448668718952e-05 -3.1798933493630529e-05 -3.2413549592327366e-05 -3.3061770869060907e-05 -3.3745175089165730e-05 -3.4465451293670975e-05 -3.5224407926667895e-05 -3.6023981704276848e-05 -3.6866247244893798e-05 -3.7753427554418366e-05 -3.8687905527041924e-05 -3.9672236591435776e-05 -4.0709162551382422e-05 -4.1801626671611341e-05 -4.2952790170460650e-05 -4.4166050367941572e-05 -4.5445060695418312e-05 -4.6793752688234091e-05 -4.8216360118946701e-05 -4.9717445573783313e-05 -5.1301929846004829e-05 -5.2975124444517645e-05 -5.4742767467350744e-05 -5.6611063226395213e-05 -5.8586726207516916e-05 -6.0677029975365108e-05 -6.2889861531285359e-05 -6.5233781687218335e-05 -6.7718092292073023e-05 -7.0352911352017974e-05 -7.3149257057335989e-05 -7.6119141736671778e-05 -7.9275677075699708e-05 -8.2633192340742678e-05 -8.6207367482540122e-05 -9.0015383031368516e-05 -9.4076089089960708e-05 -9.8410196407665794e-05 -1.0304049296781201e-04 -1.0799208975964647e-04 -1.1329270004277874e-04 -1.1897295752373319e-04 -1.2506677981150946e-04 -1.3161178423169793e-04 -1.3864976437739780e-04 -1.4622723783134798e-04 -1.5439607740101949e-04 -1.6321423991866042e-04 -1.7274660951964416e-04 -1.8306597655035167e-04 -1.9425417732350743e-04 -2.0640342390813941e-04 -2.1961785951891163e-04 -2.3401538424250862e-04 -2.4972980524898139e-04 -2.6691337581597591e-04 -2.8573980262614911e-04 -3.0640782109688213e-04 -3.2914546098738372e-04 -3.5421515223079813e-04 -3.8191985948000679e-04 -4.1261048210052009e-04 -4.4669481461191441e-04 -4.8464843992413050e-04 -5.2702802914177517e-04 -5.7448764856343076e-04 -6.2779884002438810e-04 -6.8787545995153108e-04 -7.5580454454612293e-04 -8.3288483729655012e-04 -9.2067510376155699e-04 -1.0210549962891278e-03 -1.1363020671313960e-03 -1.2691896279626860e-03 -1.4231115803792350e-03 -1.6022421778537578e-03 -1.8117410052381020e-03 -2.0580163019850222e-03 -2.3490630318147294e-03 -2.6948954500504007e-03 -3.1080963158427073e-03 -3.6045039111728440e-03 -4.2040479726004826e-03 -4.9317128818369312e-03 -5.8185159129038643e-03 -6.9021410178395828e-03 -8.2261651401831035e-03 -9.8347240453642831e-03 -1.1753160694528248e-02 -1.3926662716843233e-02 -1.6038082988844939e-02 -1.7003448029367058e-02 -1.3709043432680474e-02 1.6865764452534122e-03 4.6102533466884997e-02 1.4878366634842169e-01 3.4425776110162698e-01 6.4407205320676753e-01 1.0000000000000000e+00 0.0000000000000000e+00 -1.6514768170326734e-05 -2.3437198759170546e-05 -2.6379489735261777e-05 -2.7531196339086209e-05 -2.7977443908210680e-05 -2.8180856681224225e-05 -2.8316383076416245e-05 -2.8444102115509625e-05 -2.8583166348105362e-05 -2.8739436622201116e-05 -2.8914786005132337e-05 -2.9109981895210472e-05 -2.9325521247453262e-05 -2.9561860922916362e-05 -2.9819479895388172e-05 -3.0098896887135061e-05 -3.0400676582411899e-05 -3.0725433012975494e-05 -3.1073832328013869e-05 -3.1446595523432146e-05 -3.1844501286834215e-05 -3.2268389033610804e-05 -3.2719162211202684e-05 -3.3197791931246485e-05 -3.3705320939474632e-05 -3.4242867903786201e-05 -3.4811632033255318e-05 -3.5412898101919519e-05 -3.6048041966982079e-05 -3.6718536620705286e-05 -3.7425958764902866e-05 -3.8171995917308275e-05 -3.8958454130308549e-05 -3.9787266433479429e-05 -4.0660502066531579e-05 -4.1580376522199275e-05 -4.2549262453228254e-05 -4.3569701582864086e-05 -4.4644417781616744e-05 -4.5776331402734401e-05 -4.6968574915964995e-05 -4.8224509946407026e-05 -4.9547745947758531e-05 -5.0942160764516270e-05 -5.2411923250727643e-05 -5.3961518073609736e-05 -5.5595772938543091e-05 -5.7319888603993371e-05 -5.9139472045779890e-05 -6.1060573042335929e-05 -6.3089724499452556e-05 -6.5233987033833156e-05 -6.7500998456958497e-05 -6.9899028728237606e-05 -7.2437040896959157e-05 -7.5124758748484460e-05 -7.7972742152592939e-05 -8.0992471183602009e-05 -8.4196440023348438e-05 -8.7598261827967467e-05 -9.1212786153177801e-05 -9.5056230800013439e-05 -9.9146329961126336e-05 -1.0350250074912867e-04 -1.0814603079805371e-04 -1.1310029021490542e-04 -1.1839097140381703e-04 -1.2404636065253992e-04 -1.3009764631416470e-04 -1.3657926950184403e-04 -1.4352932391364372e-04 -1.5099001222477698e-04 -1.5900816815402709e-04 -1.6763585539527947e-04 -1.7693105631785795e-04 -1.8695846520742774e-04 -1.9779040392186944e-04 -2.0950788191733761e-04 -2.2220182672182050e-04 -2.3597451549570126e-04 -2.5094124461022646e-04 -2.6723228243177546e-04 -2.8499516010632085e-04 -3.0439736640245257e-04 -3.2562952693788219e-04 -3.4890916631124933e-04 -3.7448517405395590e-04 -4.0264312292619532e-04 -4.3371162285792337e-04 -4.6806993744359746e-04 -5.0615714461839010e-04 -5.4848319271315132e-04 -5.9564229064620227e-04 -6.4832918099981367e-04 -7.0735898564194865e-04 -7.7369149235484696e-04 -8.4846097509620700e-04 -9.3301292596279417e-04 -1.0289494370523049e-03 -1.1381854161011298e-03 -1.2630183721413237e-03 -1.4062151754528033e-03 -1.5711199706292314e-03 -1.7617882782284399e-03 -1.9831531563617158e-03 -2.2412298813049695e-03 -2.5433654963114083e-03 -2.8985378485938836e-03 -3.3177036495728074e-03 -3.8141833361869785e-03 -4.4040455518022372e-03 -5.1064021883113426e-03 -5.9434132689533559e-03 -6.9395388231792378e-03 -8.1188847716655490e-03 -9.4974924661512684e-03 -1.1061406934563960e-02 -1.2703606491965742e-02 -1.4044218157798377e-02 -1.3941904397894308e-02 -9.2859153237024351e-03 7.5533615295519255e-03 5.2793675752260960e-02 1.5434937795362752e-01 3.4585519069351695e-01 6.4141601961605910e-01 1.0000000000000000e+00 0.0000000000000000e+00 -1.8759015755757753e-05 -2.6597838181713807e-05 -2.9924211321357369e-05 -3.1224596068432451e-05 -3.1728005332079720e-05 -3.1957476531094525e-05 -3.2110527520604268e-05 -3.2254895205460270e-05 -3.2412137128915862e-05 -3.2588834774466234e-05 -3.2787085927832947e-05 -3.3007749724292798e-05 -3.3251384529579325e-05 -3.3518505297961154e-05 -3.3809652422855054e-05 -3.4125410984211645e-05 -3.4466417485144889e-05 -3.4833363589008473e-05 -3.5226999237244154e-05 -3.5648135734782092e-05 -3.6097648963207178e-05 -3.6576482812094548e-05 -3.7085652912034837e-05 -3.7626250716906141e-05 -3.8199447933701230e-05 -3.8806501292954332e-05 -3.9448757704515347e-05 -4.0127659889792539e-05 -4.0844752563445010e-05 -4.1601689175511158e-05 -4.2400239204961442e-05 -4.3242296050077679e-05 -4.4129885626027331e-05 -4.5065175772208667e-05 -4.6050486510338696e-05 -4.7088301179299681e-05 -4.8181278543335117e-05 -4.9332266040402539e-05 -5.0544314311165253e-05 -5.1820693069865105e-05 -5.3164908380685722e-05 -5.4580721516100171e-05 -5.6072169663027193e-05 -5.7643588699057090e-05 -5.9299638174323895e-05 -6.1045328671282189e-05 -6.2886051862101494e-05 -6.4827613655056424e-05 -6.6876270748431461e-05 -6.9038770870360490e-05 -7.1322397127407814e-05 -7.3735017075385971e-05 -7.6285137136546211e-05 -7.8981962885595376e-05 -8.1835465800953573e-05 -8.4856457361497025e-05 -8.8056671558821138e-05 -9.1448856853637383e-05 -9.5046878630132054e-05 -9.8865833532321760e-05 -1.0292217743829176e-04 -1.0723386891995833e-04 -1.1182053008428027e-04 -1.1670362712596623e-04 -1.2190667356967177e-04 -1.2745545954159407e-04 -1.3337831061289792e-04 -1.3970638039830497e-04 -1.4647398213072580e-04 -1.5371896524627690e-04 -1.6148314365680200e-04 -1.6981278358085532e-04 -1.7875916054576347e-04 -1.8837919679290027e-04 -1.9873619200420933e-04 -2.0990066278720276e-04 -2.2195130942195571e-04 -2.3497613145496025e-04 -2.4907371776196129e-04 -2.6435474236716970e-04 -2.8094370332719956e-04 -2.9898094834251521e-04 -3.1862504000464706e-04 -3.4005552582724082e-04 -3.6347619091856855e-04 -3.8911888615353161e-04 -4.1724804604399853e-04 -4.4816603640512669e-04 -4.8221950069708989e-04 -5.1980691113594928e-04 -5.6138757900361415e-04 -6.0749243520941219e-04 -6.58736961