<?xml version='1.0' encoding='utf-8'?>
<VTKFile type="UnstructuredGrid" version="0.1" byte_order="LittleEndian">
  <UnstructuredGrid>
    <Piece NumberOfPoints="16384" NumberOfCells="16129">
      <PointData>
        <DataArray type="Float64" Name="velocity_u" NumberOfComponents="1">0.0000000000000000e+00 0.0000000000000000e+00 0.0000000000000000e+00 0.0000000000000000e+00 0.0000000000000000e+00 0.0000000000000000e+00 0.0000000000000000e+00 0.0000000000000000e+00 0.0000000000000000e+00 0.0000000000000000e+00 0.0000000000000000e+00 0.0000000000000000e+00 0.0000000000000000e+00 0.0000000000000000e+00 0.0000000000000000e+00 0.0000000000000000e+00 0.0000000000000000e+00 0.0000000000000000e+00 0.0000000000000000e+00 0.0000000000000000e+00 0.0000000000000000e+00 0.0000000000000000e+00 0.0000000000000000e+00 0.0000000000000000e+00 0.0000000000000000e+00 0.0000000000000000e+00 0.0000000000000000e+00 0.0000000000000000e+00 0.0000000000000000e+00 0.0000000000000000e+00 0.0000000000000000e+00 0.0000000000000000e+00 0.0000000000000000e+00 0.0000000000000000e+00 0.0000000000000000e+00 0.0000000000000000e+00 0.0000000000000000e+00 0.0000000000000000e+00 0.0000000000000000e+00 0.0000000000000000e+00 0.0000000000000000e+00 0.0000000000000000e+00 0.0000000000000000e+00 0.0000000000000000e+00 0.0000000000000000e+00 0.0000000000000000e+00 0.0000000000000000e+00 0.0000000000000000e+00 0.0000000000000000e+00 0.0000000000000000e+00 0.0000000000000000e+00 0.0000000000000000e+00 0.0000000000000000e+00 0.0000000000000000e+00 0.0000000000000000e+00 0.0000000000000000e+00 0.0000000000000000e+00 0.0000000000000000e+00 0.0000000000000000e+00 0.0000000000000000e+00 0.0000000000000000e+00 0.0000000000000000e+00 0.0000000000000000e+00 0.0000000000000000e+00 0.0000000000000000e+00 0.0000000000000000e+00 0.0000000000000000e+00 0.0000000000000000e+00 0.0000000000000000e+00 0.0000000000000000e+00 0.0000000000000000e+00 0.0000000000000000e+00 0.0000000000000000e+00 0.0000000000000000e+00 0.0000000000000000e+00 0.0000000000000000e+00 0.0000000000000000e+00 0.0000000000000000e+00 0.0000000000000000e+00 0.0000000000000000e+00 0.0000000000000000e+00 0.0000000000000000e+00 0.0000000000000000e+00 0.0000000000000000e+00 0.0000000000000000e+00 0.0000000000000000e+00 0.0000000000000000e+00 0.0000000000000000e+00 0.0000000000000000e+00 0.0000000000000000e+00 0.0000000000000000e+00 0.0000000000000000e+00 0.0000000000000000e+00 0.0000000000000000e+00 0.0000000000000000e+00 0.0000000000000000e+00 0.0000000000000000e+00 0.0000000000000000e+00 0.0000000000000000e+00 0.0000000000000000e+00 0.0000000000000000e+00 0.0000000000000000e+00 0.0000000000000000e+00 0.0000000000000000e+00 0.0000000000000000e+00 0.0000000000000000e+00 0.0000000000000000e+00 0.0000000000000000e+00 0.0000000000000000e+00 0.0000000000000000e+00 0.0000000000000000e+00 0.0000000000000000e+00 0.0000000000000000e+00 0.0000000000000000e+00 0.0000000000000000e+00 0.0000000000000000e+00 0.0000000000000000e+00 0.0000000000000000e+00 0.0000000000000000e+00 0.0000000000000000e+00 0.0000000000000000e+00 0.0000000000000000e+00 0.0000000000000000e+00 0.0000000000000000e+00 0.0000000000000000e+00 0.0000000000000000e+00 0.0000000000000000e+00 1.0000000000000000e+00 0.0000000000000000e+00 -1.1652682173589989e-06 -1.7318845407241352e-06 -1.9565366049624260e-06 -2.0331804963901000e-06 -2.0581898333124136e-06 -2.0685972367120787e-06 -2.0763573771702316e-06 -2.0847710741406158e-06 -2.0945924590837877e-06 -2.1059421752732721e-06 -2.1188218979251002e-06 -2.1332290131476059e-06 -2.1491736763289587e-06 -2.1666771732724418e-06 -2.1857688151593349e-06 -2.2064839679591834e-06 -2.2288630538840158e-06 -2.2529511098073137e-06 -2.2787976235393601e-06 -2.3064565133128694e-06 -2.3359862109161114e-06 -2.3674498403448190e-06 -2.4009154667504358e-06 -2.4364563719582925e-06 -2.4741513304064075e-06 -2.5140849020939112e-06 -2.5563477793572300e-06 -2.6010371983821684e-06 -2.6482573867561653e-06 -2.6981200179673855e-06 -2.7507446875287969e-06 -2.8062594585924900e-06 -2.8648015007705057e-06 -2.9265177898675531e-06 -2.9915658222898676e-06 -3.0601143515761156e-06 -3.1323442127144688e-06 -3.2084492858171780e-06 -3.2886375780083571e-06 -3.3731323660366442e-06 -3.4621733942934668e-06 -3.5560181963994902e-06 -3.6549436021718964e-06 -3.7592474137870485e-06 -3.8692502000549700e-06 -3.9852972265017735e-06 -4.1077606191129648e-06 -4.2370418298532826e-06 -4.3735743657823628e-06 -4.5178267207121198e-06 -4.6703055616973996e-06 -4.8315593220739317e-06 -5.0021822920250737e-06 -5.1828191649449146e-06 -5.3741700025918748e-06 -5.5769957350555777e-06 -5.7921243885117874e-06 -6.0204581195860634e-06 -6.2629810267121552e-06 -6.5207678184208172e-06 -6.7949936107131294e-06 -7.0869451055038570e-06 -7.3980332091396552e-06 -7.7298071401426778e-06 -8.0839703390495693e-06 -8.4623986626837784e-06 -8.8671611906629850e-06 -9.3005438325147901e-06 -9.7650761579973217e-06 -1.0263562205874237e-05 -1.0799115996478486e-05 -1.1375202295351396e-05 -1.1995683419277207e-05 -1.2664873406707226e-05 -1.3387601035694295e-05 -1.4169283055212233e-05 -1.5016009371446165e-05 -1.5934642740445025e-05 -1.6932935890503336e-05 -1.8019669134502881e-05 -1.9204812634510459e-05 -2.0499719205950770e-05 -2.1917354225826657e-05 -2.3472569530553674e-05 -2.5182430865671714e-05 -2.7066612858553102e-05 -2.9147878103827688e-05 -3.1452658855095240e-05 -3.4011766023859602e-05 -3.6861260001878390e-05 -4.0043526574357810e-05 -4.3608611739514235e-05 -4.7615887955070682e-05 -5.2136149351492758e-05 -5.7254263228951898e-05 -6.3072548440993773e-05 -6.9715114708493144e-05 -7.7333482040631301e-05 -8.6113919521740550e-05 -9.6287120038192949e-05 -1.0814108385380300e-04 -1.2203845885709070e-04 -1.3844015084180496e-04 -1.5793787893070166e-04 -1.8129968063571280e-04 -2.0953446974517821e-04 -2.4398513393213776e-04 -2.8646522755110970e-04 -3.3946372026612715e-04 -4.0645860241578756e-04 -4.9240938362533275e-04 -6.0455250298287839e-04 -7.5372632069916343e-04 -9.5665166495382690e-04 -1.2399812875620734e-03 -1.6476545656282471e-03 -2.2542721421299327e-03 -3.1883816259549135e-03 -4.6675030602461604e-03 -7.0284525569238275e-03 -1.0661615917372223e-02 -1.5518417618565322e-02 -1.9176500265965846e-02 -1.0363415035488406e-02 5.2808989254568436e-02 3.0923823418666996e-01 1.0000000000000000e+00 0.0000000000000000e+00 -2.8958524486080587e-06 -4.1375135718478359e-06 -4.6370677668259073e-06 -4.8157724839470641e-06 -4.8783530616975279e-06 -4.9058487219603547e-06 -4.9258388658827983e-06 -4.9465865543756044e-06 -4.9702767988196776e-06 -4.9974111508591402e-06 -5.0280931420386561e-06 -5.0623599486740375e-06 -5.1002544579604968e-06 -5.1418355523097030e-06 -5.1871767221476871e-06 -5.2363638738171082e-06 -5.2894939803163419e-06 -5.3466744508138668e-06 -5.4080229443691776e-06 -5.4736674674888926e-06 -5.5437466829572884e-06 -5.6184103772602527e-06 -5.6978200245171853e-06 -5.7821493982097117e-06 -5.8715852283389428e-06 -5.9663279409460783e-06 -6.0665925094735451e-06 -6.1726094057465673e-06 -6.2846256177927314e-06 -6.4029057315065671e-06 -6.5277331173615407e-06 -6.6594112622097242e-06 -6.7982652375714099e-06 -6.9446432649131199e-06 -7.0989183741626353e-06 -7.2614902184539179e-06 -7.4327871187382649e-06 -7.6132683467515662e-06 -7.8034265953994452e-06 -8.0037906151982818e-06 -8.2149280817438207e-06 -8.4374487906477304e-06 -8.6720082124437943e-06 -8.9193113758056805e-06 -9.1801170838623437e-06 -9.4552425619744905e-06 -9.7455686505078300e-06 -1.0052045565460975e-05 -1.0375699193952392e-05 -1.0717637978612528e-05 -1.1079060574725430e-05 -1.1461264454519702e-05 -1.1865655498821186e-05 -1.2293758571418815e-05 -1.2747229213547419e-05 -1.3227866738710718e-05 -1.3737628955456233e-05 -1.4278648613540310e-05 -1.4853251722964899e-05 -1.5463978114122263e-05 -1.6113604685940158e-05 -1.6805171638913507e-05 -1.7542011931733507e-05 -1.8327784455563349e-05 -1.9166511703227760e-05 -2.0062622671554070e-05 -2.1021001586656371e-05 -2.2047043248841676e-05 -2.3146716255391340e-05 -2.4326635537753484e-05 -2.5594145546932273e-05 -2.6957415670081918e-05 -2.8425550199716916e-05 -3.0008715703455134e-05 -3.1718288688737361e-05 -3.3567026854371529e-05 -3.5569268500580742e-05 -3.7741165988254327e-05 -4.0100959742238664e-05 -4.2669300124547774e-05 -4.5469626818782942e-05 -4.8528618529249954e-05 -5.1876728331004654e-05 -5.5548822451251354e-05 -5.9584944776151204e-05 -6.4031236424420335e-05 -6.8941047657718473e-05 -7.4376288131997666e-05 -8.0409073732071903e-05 -8.7123745638226970e-05 -9.4619359391600854e-05 -1.0301277035446915e-04 -1.1244248136885560e-04 -1.2307347135377173e-04 -1.3510329462633011e-04 -1.4876983997142001e-04 -1.6436127607888449e-04 -1.8222889986921510e-04 -2.0280387541565635e-04 -2.2661924164179455e-04 -2.5433912766709084e-04 -2.8679793888718088e-04 -3.2505350892080497e-04 -3.7046006778377108e-04 -4.2476972426938142e-04 -4.9027561642468916e-04 -5.7001697083104578e-04 -6.6807782477221905e-04 -7.9003029955296343e-04 -9.4360584959061523e-04 -1.1397346165169465e-03 -1.3941941680458256e-03 -1.7302924701904467e-03 -2.1833438586264615e-03 -2.8082846918226732e-03 -3.6926945475695681e-03 -4.9784072182995839e-03 -6.8935110906014228e-03 -9.7834141851177430e-03 -1.4073951980328767e-02 -1.9916584131026933e-02 -2.5759512567489613e-02 -2.3881248871110709e-02 1.1337076351815986e-02 1.4597393614432097e-01 4.8413504603391722e-01 1.0000000000000000e+00 0.0000000000000000e+00 -4.8474335130183191e-06 -6.8131061700594585e-06 -7.5989441092895548e-06 -7.8840688717569839e-06 -7.9872400693133852e-06 -8.0341900212387119e-06 -8.0683363359388188e-06 -8.1031304933939973e-06 -8.1423683272878533e-06 -8.1870447804784008e-06 -8.2374276048082523e-06 -8.2936271552509801e-06 -8.3557376455875329e-06 -8.4238671229607072e-06 -8.4981416738661698e-06 -8.5787048697591858e-06 -8.6657169610905511e-06 -8.7593545101009459e-06 -8.8598104312921058e-06 -8.9672943505969216e-06 -9.0820332170367114e-06 -9.2042720982837259e-06 -9.3342750921008939e-06 -9.4723263208300987e-06 -9.6187310293773808e-06 -9.7738168288587084e-06 -9.9379350994830600e-06 -1.0111462526041134e-05 -1.0294802742656916e-05 -1.0488388108551849e-05 -1.0692681666765125e-05 -1.0908179312206476e-05 -1.1135412147192022e-05 -1.1374949003085520e-05 -1.1627399166222124e-05 -1.1893415392884277e-05 -1.2173697266609600e-05 -1.2468994876868603e-05 -1.2780112782120909e-05 -1.3107914293513269e-05 -1.3453326189284596e-05 -1.3817343949169527e-05 -1.4201037517222707e-05 -1.4605557583703367e-05 -1.5032142459245211e-05 -1.5482125685001491e-05 -1.5956944478865425e-05 -1.6458149031049695e-05 -1.6987412685297555e-05 -1.7546543177334279e-05 -1.8137495172598338e-05 -1.8762384253806976e-05 -1.9423502405642371e-05 -2.0123335119439235e-05 -2.0864580426508216e-05 -2.1650170220265303e-05 -2.2483294109257881e-05 -2.3367426006773655e-05 -2.4306353850336826e-05 -2.5304213033543118e-05 -2.6365524084942709e-05 -2.7495235016147070e-05 -2.8698768922331208e-05 -2.9982077774920234e-05 -3.1351703487709802e-05 -3.2814847223693309e-05 -3.4379447998436421e-05 -3.6054272114075085e-05 -3.7849015376871390e-05 -3.9774420112417770e-05 -4.1842409150304833e-05 -4.4066239645768752e-05 -4.6460680436552791e-05 -4.9042217075774723e-05 -5.1829289140657748e-05 -5.4842565555542510e-05 -5.8105265210319180e-05 -6.1643531546023958e-05 -6.5486871396995322e-05 -6.9668670758774449e-05 -7.4226802946166090e-05 -7.9204347851686687e-05 -8.4650445813292177e-05 -9.0621315902675531e-05 -9.7181474958784274e-05 -1.0440520164487019e-04 -1.1237830234253743e-04 -1.2120025233193244e-04 -1.3098680427676352e-04 -1.4187318003084309e-04 -1.5401799678204110e-04 -1.6760812451688901e-04 -1.8286472973284205e-04 -2.0005083958513954e-04 -2.1948087081998194e-04 -2.4153271614590558e-04 -2.6666318345303856e-04 -2.9542786814243876e-04 -3.2850693994818027e-04 -3.6673889279941114e-04 -4.1116512137956890e-04 -4.6308937607426968e-04 -5.2415789518715512e-04 -5.9646861790350468e-04 -6.8272182887066661e-04 -7.8643065041755864e-04 -9.1221926527290372e-04 -1.0662517978205568e-03 -1.2568591037102168e-03 -1.4954707386297251e-03 -1.7980263498163622e-03 -2.1871541401115840e-03 -2.6955961381960637e-03 -3.3716760848828339e-03 -4.2880732281448779e-03 -5.5556222314634401e-03 -7.3432595912679213e-03 -9.8992623172778071e-03 -1.3542867479039308e-02 -1.8506184318001669e-02 -2.4247765078393081e-02 -2.7229982693809565e-02 -1.5014582614250536e-02 4.5775583976914898e-02 2.2014659804934064e-01 5.6584262117253492e-01 1.0000000000000000e+00 0.0000000000000000e+00 -6.8693328915656152e-06 -9.5820009475180556e-06 -1.0657702285453644e-05 -1.1048634626689190e-05 -1.1191985073142379e-05 -1.1258566097301253e-05 -1.1307330143874595e-05 -1.1356717515910225e-05 -1.1412069700332356e-05 -1.1474870529914651e-05 -1.1545564001364114e-05 -1.1624346063337248e-05 -1.1711371447900457e-05 -1.1806803623508432e-05 -1.1910825576357939e-05 -1.2023641700512646e-05 -1.2145478062101233e-05 -1.2276582616295029e-05 -1.2417225665539220e-05 -1.2567700588418674e-05 -1.2728324807635050e-05 -1.2899440938227623e-05 -1.3081418065849858e-05 -1.3274653151282922e-05 -1.3479572599905134e-05 -1.3696634030814932e-05 -1.3926328237297590e-05 -1.4169181307146198e-05 -1.4425756900385945e-05 -1.4696658731544856e-05 -1.4982533310426965e-05 -1.5284072950589557e-05 -1.5602019021667241e-05 -1.5937165452650607e-05 -1.6290362557553927e-05 -1.6662521267524683e-05 -1.7054617792971240e-05 -1.7467698686565083e-05 -1.7902886312942041e-05 -1.8361384820039904e-05 -1.8844486737333945e-05 -1.9353580260962634e-05 -1.9890157224112081e-05 -2.0455821793804627e-05 -2.1052300034311846e-05 -2.1681450496650957e-05 -2.2345275912289767e-05 -2.3045936028074556e-05 -2.3785761716820502e-05 -2.4567270623500792e-05 -2.5393184591349627e-05 -2.6266448993295132e-05 -2.7190254086391608e-05 -2.8168058677150661e-05 -2.9203616527956215e-05 -3.0301005881095859e-05 -3.1464662379030025e-05 -3.2699415766392356e-05 -3.4010531001106422e-05 -3.5403754480627367e-05 -3.6885365982175267e-05 -3.8462236960625017e-05 -4.0141896184976205e-05 -4.1932603988337451e-05 -4.3843436395162343e-05 -4.5884380383271122e-05 -4.8066441928927457e-05 -5.0401769036653241e-05 -5.2903792201543560e-05 -5.5587384879984865e-05 -5.8469047136547621e-05 -6.1567116578755996e-05 -6.4902011345353676e-05 -6.8496510408621905e-05 -7.2376077618469404e-05 -7.6569237691643391e-05 -8.1108013802646414e-05 -8.6028437806958449e-05 -9.1371146838298970e-05 -9.7182083918201495e-05 -1.0351332357721481e-04 -1.1042404684777365e-04 -1.1798169624799905e-04 -1.2626335052434948e-04 -1.3535736790202356e-04 -1.4536535639654604e-04 -1.5640454540184190e-04 -1.6861065448670577e-04 -1.8214137976412721e-04 -1.9718064913066554e-04 -2.1394384221219587e-04 -2.3268422886479087e-04 -2.5370095317334970e-04 -2.7734899028015423e-04 -3.0405164089501453e-04 -3.3431631036358572e-04 -3.6875456861303573e-04 -4.0810783583788496e-04 -4.5328051989334688e-04 -5.0538310542137615e-04 -5.6578865647128414e-04 -6.3620757013899826e-04 -7.1878740835695245e-04 -8.1624755505372757e-04 -9.3206277167742746e-04 -1.0707162060288500e-03 -1.2380522507441803e-03 -1.4417747567211489e-03 -1.6921595545611786e-03 -2.0030869694752061e-03 -2.3935577934430037e-03 -2.8899464605292059e-03 -3.5293815761597413e-03 -4.3648282840430862e-03 -5.4726045891665747e-03 -6.9627924993003274e-03 -8.9906974119532638e-03 -1.1757574675738545e-02 -1.5453917135220213e-02 -1.9991415742764810e-02 -2.4085015816175798e-02 -2.2639024994100306e-02 -6.5623973868432061e-04 7.6599046958985603e-02 2.6529346918974955e-01 5.9960494743754278e-01 1.0000000000000000e+00 0.0000000000000000e+00 -8.9071972458590956e-06 -1.2375924035118298e-05 -1.3743196770489956e-05 -1.4239154273832113e-05 -1.4421817252922062e-05 -1.4507585356245883e-05 -1.4570839381985336e-05 -1.4634845670633998e-05 -1.4706394385419797e-05 -1.4787416226069603e-05 -1.4878517616159721e-05 -1.4979977622093852e-05 -1.5092012570262526e-05 -1.5214843025234236e-05 -1.5348710253228785e-05 -1.5493880405344682e-05 -1.5650645917448563e-05 -1.5819326412693677e-05 -1.6000269659929460e-05 -1.6193852722798137e-05 -1.6400483307955271e-05 -1.6620601278815430e-05 -1.6854680316861166e-05 -1.7103229756908515e-05 -1.7366796641800439e-05 -1.7645968012060603e-05 -1.7941373405056458e-05 -1.8253687541605730e-05 -1.8583633228674250e-05 -1.8931984544515212e-05 -1.9299570350892647e-05 -1.9687278124536876e-05 -2.0096058092764023e-05 -2.0526927713184864e-05 -2.0980976587569309e-05 -2.1459371876385255e-05 -2.1963364214977842e-05 -2.2494294120918906e-05 -2.3053598955905270e-05 -2.3642820575392325e-05 -2.4263613773550794e-05 -2.4917755550592582e-05 -2.5607155220000055e-05 -2.6333865466476155e-05 -2.7100094542337000e-05 -2.7908219749278562e-05 -2.8760802270577688e-05 -2.9660603449492508e-05 -3.0610602746515182e-05 -3.1614017674243104e-05 -3.2674325923533272e-05 -3.3795289819156647e-05 -3.4980983350298982e-05 -3.6235822212377021e-05 -3.7564597335325254e-05 -3.8972512264339060e-05 -4.0465224766834586e-05 -4.2048893265952391e-05 -4.3730228893192882e-05 -4.5516553912732314e-05 -4.7415867220701140e-05 -4.9436917865539053e-05 -5.1589287915828281e-05 -5.3883486132611900e-05 -5.6331053857021659e-05 -5.8944684769472662e-05 -6.1738360764854592e-05 -6.4727506619585725e-05 -6.7929166259441483e-05 -7.1362203837856288e-05 -7.5047533784780267e-05 -7.9008384904929367e-05 -8.3270604119559195e-05 -8.7863006252476532e-05 -9.2817777980925452e-05 -9.8170946066402062e-05 -1.0396292151513900e-04 -1.1023913313757563e-04 -1.1705076724242599e-04 -1.2445563453271057e-04 -1.3251918956931277e-04 -1.4131573290994935e-04 -1.5092983291789346e-04 -1.6145801376129878e-04 -1.7301076739601154e-04 -1.8571496058100335e-04 -1.9971672537413051e-04 -2.1518494474822772e-04 -2.3231547430671763e-04 -2.5133627842136681e-04 -2.7251370825997524e-04 -2.9616021339113713e-04 -3.2264386268172289e-04 -3.5240016250049190e-04 -3.8594680965275610e-04 -4.2390221539618373e-04 -4.6700890789644621e-04 -5.1616329036942668e-04 -5.7245373594413842e-04 -6.3720969905994200e-04 -7.1206549960444137e-04 -7.9904380184650482e-04 -9.0066574596576869e-04 -1.0200974548216859e-03 -1.1613466036009318e-03 -1.3295284770477489e-03 -1.5312292800766149e-03 -1.7750066156615439e-03 -2.0720847376348699e-03 -2.4373277356779547e-03 -2.8906098619507249e-03 -3.4587502290074133e-03 -4.1782330903011814e-03 -5.0989584822858803e-03 -6.2891127695626423e-03 -7.8403723106710583e-03 -9.8691914668129696e-03 -1.2497855880034660e-02 -1.5760460326540372e-02 -1.9267784451282403e-02 -2.1188044190815585e-02 -1.5576305724247515e-02 1.3280535253537260e-02 9.8551059919432457e-02 2.8891503033351085e-01 6.1079024845458940e-01 1.0000000000000000e+00 0.0000000000000000e+00 -1.0943711154724901e-05 -1.5170653009644043e-05 -1.6830119421285557e-05 -1.7430697483216752e-05 -1.7652079519988372e-05 -1.7756587076170451e-05 -1.7834054883478220e-05 -1.7912512299074799e-05 -1.8000139123492776e-05 -1.8099276654374804e-05 -1.8210675359578642e-05 -1.8334689214075284e-05 -1.8471592810706153e-05 -1.8621662517356829e-05 -1.8785197283223118e-05 -1.8962524545100195e-05 -1.9154002546511911e-05 -1.9360021858475832e-05 -1.9581006824078850e-05 -1.9817417125544897e-05 -2.0069749511770147e-05 -2.0338539681567258e-05 -2.0624364339377320e-05 -2.0927843470715762e-05 -2.1249642875797592e-05 -2.1590476955383627e-05 -2.1951111718891713e-05 -2.2332368018326539e-05 -2.2735125067997400e-05 -2.3160324322124297e-05 -2.3608973734448164e-05 -2.4082152381487874e-05 -2.4581015454575490e-05 -2.5106799691570315e-05 -2.5660829340645290e-05 -2.6244522698723732e-05 -2.6859399219858819e-05 -2.7507087224261870e-05 -2.8189332323112358e-05 -2.8908006697909387e-05 -2.9665119304350485e-05 -3.0462827014333112e-05 -3.1303446765178660e-05 -3.2189468895395974e-05 -3.3123571868373769e-05 -3.4108638502037517e-05 -3.5147773782628982e-05 -3.6244324440914808e-05 -3.7401900594092441e-05 -3.8624399742513425e-05 -3.9916033308526058e-05 -4.1281355926006977e-05 -4.2725297873404262e-05 -4.4253201172406659e-05 -4.5870859808482475e-05 -4.7584564455079029e-05 -4.9401152233289007e-05 -5.1328062297959652e-05 -5.3373398112513156e-05 -5.5545997190154273e-05 -5.7855509186616354e-05 -6.0312483605419539e-05 -6.2928468652166477e-05 -6.5716122768953998e-05 -6.8689340471247582e-05 -7.1863394610206314e-05 -7.5255097756780410e-05 -7.8882985646656234e-05 -8.2767525858606377e-05 -8.6931355648354149e-05 -9.1399553877643142e-05 -9.6199952694593399e-05 -1.0136349529969652e-04 -1.0692464746002180e-04 -1.1292187224693681e-04 -1.1939817919239257e-04 -1.2640176102621069e-04 -1.3398673399042175e-04 -1.4221400105878841e-04 -1.5115226105569089e-04 -1.6087919180098243e-04 -1.7148284227871049e-04 -1.8306327612507855e-04 -1.9573451721240529e-04 -2.0962686072038765e-04 -2.2488962957799586e-04 -2.4169447432869547e-04 -2.6023933732355440e-04 -2.8075323451658927e-04 -3.0350204903541688e-04 -3.2879558022786266e-04 -3.5699615789418204e-04 -3.8852921983776592e-04 -4.2389636379741032e-04 -4.6369153259322074e-04 -5.0862119004914559e-04 -5.5952960903393485e-04 -6.1743074367312056e-04 -6.8354863166077563e-04 -7.5936891455456604e-04 -8.4670493353133426e-04 -9.4778304490510069e-04 -1.0653534265750054e-03 -1.2028348733332680e-03 -1.3645051288986368e-03 -1.5557524685897834e-03 -1.7834098728104631e-03 -2.0562005987248655e-03 -2.3853335292020918e-03 -2.7852980926682354e-03 -3.2749200199670685e-03 -3.8787445685002832e-03 -4.6287944675736355e-03 -5.5666494151136430e-03 -6.7454353084632490e-03 -8.2301180826743637e-03 -1.0090585981075003e-02 -1.2369438771473524e-02 -1.4967921366171191e-02 -1.7285694267704717e-02 -1.7192352580342612e-02 -8.4609908307626876e-03 2.4371354746617661e-02 1.1240531836377900e-01 2.9988132239249632e-01 6.1251988494770548e-01 1.0000000000000000e+00 0.0000000000000000e+00 -1.2973521328200835e-05 -1.7957613340699604e-05 -1.9909058164428503e-05 -2.0613982240536341e-05 -2.0873733022358681e-05 -2.0996651401998504e-05 -2.1088062011004613e-05 -2.1180746808159276e-05 -2.1284251649950940e-05 -2.1401307936963100e-05 -2.1532796462318251e-05 -2.1679137980153209e-05 -2.1840660759676975e-05 -2.2017694314192087e-05 -2.2210593544303963e-05 -2.2419745806070578e-05 -2.2645573860597534e-05 -2.2888537873547332e-05 -2.3149137279174442e-05 -2.3427912730596203e-05 -2.3725448188160854e-05 -2.4042373166803262e-05 -2.4379365186129920e-05 -2.4737152478286647e-05 -2.5116516975972625e-05 -2.5518297560081096e-05 -2.5943393549457883e-05 -2.6392768469979560e-05 -2.6867454183574998e-05 -2.7368555437101701e-05 -2.7897254831429993e-05 -2.8454818194497454e-05 -2.9042600394389032e-05 -2.9662051685615916e-05 -3.0314724669232666e-05 -3.1002281888078552e-05 -3.1726504067366407e-05 -3.2489299080975121e-05 -3.3292711788160177e-05 -3.4138934855705303e-05 -3.5030320600553817e-05 -3.5969393887000884e-05 -3.6958866217709670e-05 -3.8001651241493821e-05 -3.9100881857964136e-05 -4.0259929013415968e-05 -4.1482422312710410e-05 -4.2772272709805181e-05 -4.4133697606694903e-05 -4.5571248613305217e-05 -4.7089842166538603e-05 -4.8694793332412159e-05 -5.0391853301544914e-05 -5.2187251107070758e-05 -5.4087739985567721e-05 -5.6100648841730867e-05 -5.8233939531607085e-05 -6.0496270867382063e-05 -6.2897070202751670e-05 -6.5446613442777325e-05 -6.8156114605616625e-05 -7.1037826432934772e-05 -7.4105153648214048e-05 -7.7372780457831612e-05 -8.0856814227120649e-05 -8.4574947874873163e-05 -8.8546643910148267e-05 -9.2793343195311123e-05 -9.7338702047809869e-05 -1.0220886227314797e-04 -1.0743275952483631e-04 -1.1304247593746002e-04 -1.1907364407112802e-04 -1.2556591099401924e-04 -1.3256347291321850e-04 -1.4011569210768259e-04 -1.4827781035554329e-04 -1.5711177674287668e-04 -1.6668721108561649e-04 -1.7708252729408498e-04 -1.8838624640697352e-04 -2.0069853698699965e-04 -2.1413302834555795e-04 -2.2881895018429346e-04 -2.4490366495889029e-04 -2.6255567655023764e-04 -2.8196821732160890e-04 -3.0336353829916047e-04 -3.2699805950875388e-04 -3.5316857768761460e-04 -3.8221977638188548e-04 -4.1455334739728250e-04 -4.5063911669144310e-04 -4.9102867201871738e-04 -5.3637212563689956e-04 -5.8743882591861618e-04 -6.4514306272863396e-04 -7.1057611279275927e-04 -7.8504637065351165e-04 -8.7012982979750326e-04 -9.6773385642813070e-04 -1.0801780879770686e-03 -1.2102974369782842e-03 -1.3615736508295537e-03 -1.5383037277477717e-03 -1.7458157245123897e-03 -1.9907450288473476e-03 -2.2813866824118482e-03 -2.6281409592300120e-03 -3.0440681612204090e-03 -3.5455601292611123e-03 -4.1531106311982358e-03 -4.8921019996250020e-03 -5.7933624342507923e-03 -6.8928155121732206e-03 -8.2282930696792600e-03 -9.8277222068500515e-03 -1.1670745553771358e-02 -1.3568893064032882e-02 -1.4806873792337099e-02 -1.3146733562702181e-02 -2.3958470906264551e-03 3.2357914765421707e-02 1.2058254283547262e-01 3.0436396834164692e-01 6.1103163653733772e-01 1.0000000000000000e+00 0.0000000000000000e+00 -1.4994578435078602e-05 -2.0733201446152619e-05 -2.2975809056068549e-05 -2.3784752621760339e-05 -2.4082626360089823e-05 -2.4223713559187420e-05 -2.4328827907277973e-05 -2.4435505254495241e-05 -2.4554651699959469e-05 -2.4689380168363034e-05 -2.4840693955125741e-05 -2.5009074672162080e-05 -2.5194900099124659e-05 -2.5398549950392561e-05 -2.5620432844151680e-05 -2.5860994162304515e-05 -2.6120719398024970e-05 -2.6400136499182489e-05 -2.6699818073356493e-05 -2.7020383672789515e-05 -2.7362502214393881e-05 -2.7726894574817467e-05 -2.8114336420829578e-05 -2.8525661325535873e-05 -2.8961764175753908e-05 -2.9423604847900121e-05 -2.9912212160523248e-05 -3.0428688170448802e-05 -3.0974212895475702e-05 -3.1550049497499315e-05 -3.2157549910676996e-05 -3.2798160917244963e-05 -3.3473430742267893e-05 -3.4185016269025764e-05 -3.4934690932910408e-05 -3.5724353304507705e-05 -3.6556036403689552e-05 -3.7431917868170603e-05 -3.8354331122726791e-05 -3.9325777626294853e-05 -4.0348940220719702e-05 -4.1426697667056924e-05 -4.2562140572851607e-05 -4.3758588936927414e-05 -4.5019611451450158e-05 -4.6349046658123382e-05 -4.7751026156352777e-05 -4.9230000187383700e-05 -5.0790765906539762e-05 -5.2438498564719743e-05 -5.4178785857867030e-05 -5.6017665891268885e-05 -5.7961669319294504e-05 -6.0017866142118665e-05 -6.2193917580905659e-05 -6.4498133630225258e-05 -6.6939537150086743e-05 -6.9527935416131354e-05 -7.2273999969061687e-05 -7.5189355745153063e-05 -7.8286680848687110e-05 -8.1579818562099043e-05 -8.5083903172537733e-05 -8.8815501345466982e-05 -9.2792771323023073e-05 -9.7035642743901175e-05 -1.0156602005471192e-04 -1.0640801275654929e-04 -1.1158819655966507e-04 -1.1713591047367187e-04 -1.2308359540606003e-04 -1.2946718047004627e-04 -1.3632652465062409e-04 -1.4370592330952358e-04 -1.5165469039780239e-04 -1.6022782868775577e-04 -1.6948680296041162e-04 -1.7950043465007965e-04 -1.9034593989043780e-04 -2.0211013653252511e-04 -2.1489085091082072e-04 -2.2879856220147467e-04 -2.4395833027931340e-04 -2.6051206215524635e-04 -2.7862118385988169e-04 -2.9846979992016824e-04 -3.2026844115911810e-04 -3.4425852424514058e-04 -3.7071767522697027e-04 -3.9996610539694228e-04 -4.3237427281787595e-04 -4.6837212016567124e-04 -5.0846025163911652e-04 -5.5322350172972573e-04 -6.0334746407326740e-04 -6.5963869494470382e-04 -7.2304948833616547e-04 -7.9470835151259018e-04 -8.7595760197138703e-04 -9.6839986571814170e-04 -1.0739556999457829e-03 -1.1949350958760016e-03 -1.3341262277143408e-03 -1.4949054786609955e-03 -1.6813734028353412e-03 -1.8985216754465392e-03 -2.1524358630115657e-03 -2.4505372378122955e-03 -2.8018624391227282e-03 -3.2173699000190227e-03 -3.7102416574330238e-03 -4.2961089288936008e-03 -4.9930493609406457e-03 -5.8210322930581804e-03 -6.8000744058040810e-03 -7.9452108677768394e-03 -9.2527946560066795e-03 -1.0661148806862203e-02 -1.1933266730283588e-02 -1.2310837192381185e-02 -9.5587743394483071e-03 2.3594766246550422e-03 3.7829741082651372e-02 1.2525584576164814e-01 3.0585869863545745e-01 6.0889562433796829e-01 1.0000000000000000e+00 0.0000000000000000e+00 -1.7005587705080057e-05 -2.3495246732655321e-05 -2.6027784403542503e-05 -2.6940309123133567e-05 -2.7276074965255985e-05 -2.7435125968976370e-05 -2.7553724721486190e-05 -2.7674156261977532e-05 -2.7808686111696200e-05 -2.7960806140466203e-05 -2.8131638462788639e-05 -2.8321721850236779e-05 -2.8531480363924522e-05 -2.8761341196356841e-05 -2.9011764321505572e-05 -2.9283250976600970e-05 -2.9576347272778404e-05 -2.9891646786980889e-05 -3.0229793039636247e-05 -3.0591482063918466e-05 -3.0977465122074318e-05 -3.1388551623081074e-05 -3.1825612307951440e-05 -3.2289582741093907e-05 -3.2781467100618821e-05 -3.3302342255765715e-05 -3.3853362169328838e-05 -3.4435762708220784e-05 -3.5050866928404862e-05 -3.5700090840264219e-05 -3.6384949639579412e-05 -3.7107064441216857e-05 -3.7868169615368738e-05 -3.8670120818814338e-05 -3.9514903753316610e-05 -4.0404643666114970e-05 -4.1341615674448566e-05 -4.2328256063501497e-05 -4.3367174681590353e-05 -4.4461168478169248e-05 -4.5613236229252846e-05 -4.6826594602174154e-05 -4.8104695796913073e-05 -4.9451246957540394e-05 -5.0870231459028795e-05 -5.2365932205823369e-05 -5.3942957218473877e-05 -5.5606267852122883e-05 -5.7361209915649013e-05 -5.9213547913760062e-05 -6.1169502766769267e-05 -6.3235793542641293e-05 -6.5419683739614289e-05 -6.7729032548588365e-05 -7.0172351583002178e-05 -7.2758867828276116e-05 -7.5498593735695443e-05 -7.8402405328528878e-05 -8.1482129189307422e-05 -8.4750639494729510e-05 -8.8221966604049224e-05 -9.1911418767145277e-05 -9.5835718525752819e-05 -1.0001315575872403e-04 -1.0446375990820166e-04 -1.0920949422186212e-04 -1.1427447496929353e-04 -1.1968521912681232e-04 -1.2547092494593964e-04 -1.3166379051156107e-04 -1.3829937588317339e-04 -1.4541701539606263e-04 -1.5306028820126410e-04 -1.6127755649752551e-04 -1.7012258229259008e-04 -1.7965523562581847e-04 -1.8994230973444739e-04 -2.0105846119022641e-04 -2.1308729644539998e-04 -2.2612263102366704e-04 -2.4026995251013802e-04 -2.5564812363445400e-04 -2.7239136955476421e-04 -2.9065160378526322e-04 -3.1060115753789064e-04 -3.3243598947902878e-04 -3.5637947081206640e-04 -3.8268686209218895e-04 -4.1165062157991639e-04 -4.4360671557374829e-04 -4.7894214117624100e-04 -5.1810391822439204e-04 -5.616098