<?xml version='1.0' encoding='utf-8'?>
<VTKFile type="UnstructuredGrid" version="0.1" byte_order="LittleEndian">
  <UnstructuredGrid>
    <Piece NumberOfPoints="16384" NumberOfCells="16129">
      <PointData>
        <DataArray type="Float64" Name="velocity_u" NumberOfComponents="1">0.0000000000000000e+00 0.0000000000000000e+00 0.0000000000000000e+00 0.0000000000000000e+00 0.0000000000000000e+00 0.0000000000000000e+00 0.0000000000000000e+00 0.0000000000000000e+00 0.0000000000000000e+00 0.0000000000000000e+00 0.0000000000000000e+00 0.0000000000000000e+00 0.0000000000000000e+00 0.0000000000000000e+00 0.0000000000000000e+00 0.0000000000000000e+00 0.0000000000000000e+00 0.0000000000000000e+00 0.0000000000000000e+00 0.0000000000000000e+00 0.0000000000000000e+00 0.0000000000000000e+00 0.0000000000000000e+00 0.0000000000000000e+00 0.0000000000000000e+00 0.0000000000000000e+00 0.0000000000000000e+00 0.0000000000000000e+00 0.0000000000000000e+00 0.0000000000000000e+00 0.0000000000000000e+00 0.0000000000000000e+00 0.0000000000000000e+00 0.0000000000000000e+00 0.0000000000000000e+00 0.0000000000000000e+00 0.0000000000000000e+00 0.0000000000000000e+00 0.0000000000000000e+00 0.0000000000000000e+00 0.0000000000000000e+00 0.0000000000000000e+00 0.0000000000000000e+00 0.0000000000000000e+00 0.0000000000000000e+00 0.0000000000000000e+00 0.0000000000000000e+00 0.0000000000000000e+00 0.0000000000000000e+00 0.0000000000000000e+00 0.0000000000000000e+00 0.0000000000000000e+00 0.0000000000000000e+00 0.0000000000000000e+00 0.0000000000000000e+00 0.0000000000000000e+00 0.0000000000000000e+00 0.0000000000000000e+00 0.0000000000000000e+00 0.0000000000000000e+00 0.0000000000000000e+00 0.0000000000000000e+00 0.0000000000000000e+00 0.0000000000000000e+00 0.0000000000000000e+00 0.0000000000000000e+00 0.0000000000000000e+00 0.0000000000000000e+00 0.0000000000000000e+00 0.0000000000000000e+00 0.0000000000000000e+00 0.0000000000000000e+00 0.0000000000000000e+00 0.0000000000000000e+00 0.0000000000000000e+00 0.0000000000000000e+00 0.0000000000000000e+00 0.0000000000000000e+00 0.0000000000000000e+00 0.0000000000000000e+00 0.0000000000000000e+00 0.0000000000000000e+00 0.0000000000000000e+00 0.0000000000000000e+00 0.0000000000000000e+00 0.0000000000000000e+00 0.0000000000000000e+00 0.0000000000000000e+00 0.0000000000000000e+00 0.0000000000000000e+00 0.0000000000000000e+00 0.0000000000000000e+00 0.0000000000000000e+00 0.0000000000000000e+00 0.0000000000000000e+00 0.0000000000000000e+00 0.0000000000000000e+00 0.0000000000000000e+00 0.0000000000000000e+00 0.0000000000000000e+00 0.0000000000000000e+00 0.0000000000000000e+00 0.0000000000000000e+00 0.0000000000000000e+00 0.0000000000000000e+00 0.0000000000000000e+00 0.0000000000000000e+00 0.0000000000000000e+00 0.0000000000000000e+00 0.0000000000000000e+00 0.0000000000000000e+00 0.0000000000000000e+00 0.0000000000000000e+00 0.0000000000000000e+00 0.0000000000000000e+00 0.0000000000000000e+00 0.0000000000000000e+00 0.0000000000000000e+00 0.0000000000000000e+00 0.0000000000000000e+00 0.0000000000000000e+00 0.0000000000000000e+00 0.0000000000000000e+00 0.0000000000000000e+00 0.0000000000000000e+00 0.0000000000000000e+00 0.0000000000000000e+00 1.0000000000000000e+00 0.0000000000000000e+00 -1.2522347767207408e-06 -2.1421533663192421e-06 -2.6075813950370299e-06 -2.8166395922940597e-06 -2.9016528352110097e-06 -2.9356890655077913e-06 -2.9523156541196162e-06 -2.9649193133830565e-06 -2.9781567777298946e-06 -2.9933992320665338e-06 -3.0109496850550008e-06 -3.0308300460009298e-06 -3.0530207952349186e-06 -3.0775182968727015e-06 -3.1043408297629898e-06 -3.1335241316356458e-06 -3.1651168921433000e-06 -3.1991778531433860e-06 -3.2357741901675031e-06 -3.2749806873802758e-06 -3.3168793997575484e-06 -3.3615596365004515e-06 -3.4091181498276390e-06 -3.4596594296285427e-06 -3.5132960448280475e-06 -3.5701490341471518e-06 -3.6303483817067036e-06 -3.6940335889344954e-06 -3.7613543087143918e-06 -3.8324710053236876e-06 -3.9075556530471251e-06 -3.9867925280630943e-06 -4.0703791245162057e-06 -4.1585271619078514e-06 -4.2514636318027795e-06 -4.3494318906751400e-06 -4.4526928748436981e-06 -4.5615265020813762e-06 -4.6762332422632361e-06 -4.7971357929624120e-06 -4.9245808521672109e-06 -5.0589410672651645e-06 -5.2006172400137123e-06 -5.3500407808293924e-06 -5.5076763600712639e-06 -5.6740247760177431e-06 -5.8496261536650125e-06 -6.0350635645388226e-06 -6.2309670413256235e-06 -6.4380179289522588e-06 -6.6569536366594811e-06 -6.8885729745148385e-06 -7.1337422013072740e-06 -7.3934017631726676e-06 -7.6685736986504788e-06 -7.9603698559980281e-06 -8.2700011696802944e-06 -8.5987881313797062e-06 -8.9481724691325354e-06 -9.3197301618514641e-06 -9.7151861379276736e-06 -1.0136431008797464e-05 -1.0585539990902626e-05 -1.1064794156609119e-05 -1.1576704451990484e-05 -1.2124039138477069e-05 -1.2709855183079374e-05 -1.3337533984566963e-05 -1.4010822091075390e-05 -1.4733877973907251e-05 -1.5511325962972120e-05 -1.6348318315474673e-05 -1.7250606699777527e-05 -1.8224625030016134e-05 -1.9277585896311805e-05 -2.0417592866631054e-05 -2.1653771492343332e-05 -2.2996422887791735e-05 -2.4457204396417099e-05 -2.6049342377876597e-05 -2.7787883826942372e-05 -2.9689995890268157e-05 -3.1775323573766725e-05 -3.4066417037786122e-05 -3.6589244026874525e-05 -3.9373809306565757e-05 -4.2454907412458850e-05 -4.5873039119796540e-05 -4.9675531921529584e-05 -5.3917919721645054e-05 -5.8665651674209517e-05 -6.3996218469824807e-05 -7.0001814421357837e-05 -7.6792694127117349e-05 -8.4501432770135818e-05 -9.3288371122228061e-05 -1.0334863037214077e-04 -1.1492122400868310e-04 -1.2830099550853458e-04 -1.4385440621768870e-04 -1.6204062754721351e-04 -1.8344002432948232e-04 -2.0879307167451981e-04 -2.3905420939007141e-04 -2.7546740815651135e-04 -3.1967382762805645e-04 -3.7386780311469465e-04 -4.4102712098728760e-04 -5.2526008415685525e-04 -6.3234063791529026e-04 -7.7055359634491474e-04 -9.5206166214853688e-04 -1.1951600918895257e-03 -1.5280298180751915e-03 -1.9949168876481752e-03 -2.6658349405101205e-03 -3.6500678204796086e-03 -5.1095806636643690e-03 -7.2555541251598799e-03 -1.0279424801045288e-02 -1.4101479416028384e-02 -1.7673789410219763e-02 -1.7167247933804839e-02 -6.8864806440915687e-04 7.0750894038614023e-02 3.2681992618503131e-01 1.0000000000000000e+00 0.0000000000000000e+00 -3.3931739844899819e-06 -5.4095783764290063e-06 -6.4773976251824113e-06 -6.9776704727927480e-06 -7.1934569060866210e-06 -7.2861361247932046e-06 -7.3334899609329858e-06 -7.3684056154300600e-06 -7.4032555923572139e-06 -7.4421727569904360e-06 -7.4863562261886853e-06 -7.5360962058195588e-06 -7.5914599721289194e-06 -7.6524936872820379e-06 -7.7192691459989095e-06 -7.7918881006226653e-06 -7.8704781522750128e-06 -7.9551887476309324e-06 -8.0461886489387561e-06 -8.1436646536461702e-06 -8.2478211839760576e-06 -8.3588804505354702e-06 -8.4770829692855781e-06 -8.6026882855902333e-06 -8.7359758498287225e-06 -8.8772460593331616e-06 -9.0268214884466165e-06 -9.1850482868820283e-06 -9.3522977031588772e-06 -9.5289677234963593e-06 -9.7154848715983172e-06 -9.9123062194669970e-06 -1.0119921606690935e-05 -1.0338856027268515e-05 -1.0569672180375869e-05 -1.0812973259548426e-05 -1.1069406073268254e-05 -1.1339664518626489e-05 -1.1624493358049253e-05 -1.1924692277750475e-05 -1.2241120306898782e-05 -1.2574700722404866e-05 -1.2926426497825232e-05 -1.3297366277864841e-05 -1.3688670893407674e-05 -1.4101580539894964e-05 -1.4537432771291334e-05 -1.4997671368722096e-05 -1.5483856076394426e-05 -1.5997673289652807e-05 -1.6540947933044869e-05 -1.7115656772704152e-05 -1.7723943265617839e-05 -1.8368133992136977e-05 -1.9050756875278643e-05 -1.9774561568789104e-05 -2.0542542364682497e-05 -2.1357963835090281e-05 -2.2224389480050004e-05 -2.3145713907360897e-05 -2.4126199194976376e-05 -2.5170515957329695e-05 -2.6283789589330299e-05 -2.7471652462510427e-05 -2.8740303212068761e-05 -3.0096574283039093e-05 -3.1548008796298600e-05 -3.3102948067789147e-05 -3.4770631703607305e-05 -3.6561312520359808e-05 -3.8486388566310479e-05 -4.0558554924484829e-05 -4.2791978962435467e-05 -4.5202503516568140e-05 -4.7807882837398087e-05 -5.0628056883189115e-05 -5.3685471386997997e-05 -5.7005453133664076e-05 -6.0616651173719239e-05 -6.4551556346953396e-05 -6.8847115099247651e-05 -7.3545458517894417e-05 -7.8694771927539659e-05 -8.4350334901457630e-05 -9.0575769122038714e-05 -9.7444543055201445e-05 -1.0504179573909442e-04 -1.1346655707098457e-04 -1.2283446289713737e-04 -1.3328109276069107e-04 -1.4496609600479489e-04 -1.5807832103748227e-04 -1.7284223006371679e-04 -1.8952597294796781e-04 -2.0845161701065859e-04 -2.3000820092673290e-04 -2.5466851950803760e-04 -2.8301087801724879e-04 -3.1574752822257339e-04 -3.5376218112833106e-04 -3.9815997810830391e-04 -4.5033475676443751e-04 -5.1206062701378036e-04 -5.8561817244424008e-04 -6.7397068072146224e-04 -7.8101380599920433e-04 -9.1193486133568234e-04 -1.0737388157608704e-03 -1.2760327708817769e-03 -1.5322191416470641e-03 -1.8613465419686471e-03 -2.2910312561857161e-03 -2.8621175294617908e-03 -3.6360802862505587e-03 -4.7063980556433594e-03 -6.2144573480949396e-03 -8.3666411331009792e-03 -1.1436225849001145e-02 -1.5699123011951564e-02 -2.1173885095974253e-02 -2.6876597427733295e-02 -2.8988994061240798e-02 -1.6689551062036498e-02 3.6844910374295027e-02 1.8951874480970279e-01 5.2237310469864595e-01 1.0000000000000000e+00 0.0000000000000000e+00 -5.9954050078615759e-06 -9.2733483678769625e-06 -1.0991406098841709e-05 -1.1806589209887203e-05 -1.2168342653389531e-05 -1.2330107665963641e-05 -1.2415585794965653e-05 -1.2478455883564910e-05 -1.2539746064580823e-05 -1.2606949784390226e-05 -1.2682507325806063e-05 -1.2767164714582936e-05 -1.2861176438097621e-05 -1.2964694225645791e-05 -1.3077877473124879e-05 -1.3200918006605333e-05 -1.3334042107952146e-05 -1.3477508223134504e-05 -1.3631604934996505e-05 -1.3796649963872996e-05 -1.3972990078947644e-05 -1.4161001665122193e-05 -1.4361091721702372e-05 -1.4573699157382775e-05 -1.4799296345606966e-05 -1.5038390957022975e-05 -1.5291528069821045e-05 -1.5559292518922467e-05 -1.5842311449325529e-05 -1.6141257093516296e-05 -1.6456849834025925e-05 -1.6789861590399064e-05 -1.7141119514913358e-05 -1.7511509978051842e-05 -1.7901982890765119e-05 -1.8313556469065125e-05 -1.8747322518012675e-05 -1.9204452228668492e-05 -1.9686202457627612e-05 -2.0193922539545205e-05 -2.0729061774547274e-05 -2.1293177720043994e-05 -2.1887945327822748e-05 -2.2515166940281112e-05 -2.3176783249400430e-05 -2.3874885411752561e-05 -2.4611728479254474e-05 -2.5389746212473374e-05 -2.6211567364176565e-05 -2.7080033674022777e-05 -2.7998219912080118e-05 -2.8969456226384260e-05 -2.9997352938801561e-05 -3.1085828015157631e-05 -3.2239137656223626e-05 -3.3461910547589019e-05 -3.4759186204546991e-05 -3.6136457817372026e-05 -3.7599720221192605e-05 -3.9155523863446756e-05 -4.0811035645574010e-05 -4.2574107434668559e-05 -4.4453353250217227e-05 -4.6458236582357269e-05 -4.8599169550858427e-05 -5.0887625588412700e-05 -5.3336267512729740e-05 -5.5959093483905998e-05 -5.8771603974413075e-05 -6.1790993155661826e-05 -6.5036368484622852e-05 -6.8529003275066735e-05 -7.2292628290585362e-05 -7.6353769320000437e-05 -8.0742138669118933e-05 -8.5491090287390342e-05 -9.0638150688324606e-05 -9.6225640357295707e-05 -1.0230140326547231e-04 -1.0891966600120792e-04 -1.1614205279831674e-04 -1.2403878869004386e-04 -1.3269013125338883e-04 -1.4218808176723750e-04 -1.5263843813545489e-04 -1.6416326667788403e-04 -1.7690389150516964e-04 -1.9102452824024528e-04 -2.0671672195699418e-04 -2.2420479270481510e-04 -2.4375255312047888e-04 -2.6567164302497722e-04 -2.9033192989265963e-04 -3.1817456601114475e-04 -3.4972848880168543e-04 -3.8563141644861089e-04 -4.2665675679603776e-04 -4.7374836091213510e-04 -5.2806577757077825e-04 -5.9104369553097057e-04 -6.6447074648782187e-04 -7.5059501324953564e-04 -8.5226679603238353e-04 -9.7313399435931683e-04 -1.1179127716990950e-03 -1.2927674510840555e-03 -1.5058512646425014e-03 -1.7680876942231499e-03 -2.0943173601641251e-03 -2.5050084259893883e-03 -3.0288448958830107e-03 -3.7066839274453242e-03 -4.5976069864083714e-03 -5.7879759742975843e-03 -7.4040936801304932e-03 -9.6268177525952233e-03 -1.2698406092737894e-02 -1.6888926867673262e-02 -2.2333640589473725e-02 -2.8533715880096826e-02 -3.3092507938446196e-02 -2.8926890596007324e-02 1.0235530878280902e-03 9.1009151086503468e-02 2.9108664965030162e-01 6.2498752967855153e-01 1.0000000000000000e+00 0.0000000000000000e+00 -8.7988745107731495e-06 -1.3416582934900805e-05 -1.5807017441082608e-05 -1.6941735698615485e-05 -1.7451125585100644e-05 -1.7683930976222366e-05 -1.7809828296006834e-05 -1.7902980316032983e-05 -1.7992954146721641e-05 -1.8090632103269468e-05 -1.8199769909805312e-05 -1.8321639326578965e-05 -1.8456733806566490e-05 -1.8605345661736216e-05 -1.8767745226266756e-05 -1.8944230565850094e-05 -1.9135138743339994e-05 -1.9340847166859085e-05 -1.9561773208615842e-05 -1.9798374148616880e-05 -2.0051147785211506e-05 -2.0320633624143370e-05 -2.0607414502217381e-05 -2.0912118567509918e-05 -2.1235421612202560e-05 -2.1578049771743478e-05 -2.1940782568076404e-05 -2.2324456252097831e-05 -2.2729967435821122e-05 -2.3158277066519925e-05 -2.3610414812005345e-05 -2.4087483879996094e-05 -2.4590666255366537e-05 -2.5121228370196528e-05 -2.5680527296645883e-05 -2.6270017574995100e-05 -2.6891258727210267e-05 -2.7545923444409784e-05 -2.8235806471599357e-05 -2.8962834315989246e-05 -2.9729075951213312e-05 -3.0536754625468484e-05 -3.1388260810751229e-05 -3.2286166372745525e-05 -3.3233240157159531e-05 -3.4232465226245921e-05 -3.5287057901542897e-05 -3.6400488723535353e-05 -3.7576505545694053e-05 -3.8819159133508402e-05 -4.0132831646517183e-05 -4.1522268266037510e-05 -4.2992612225594830e-05 -4.4549443698610794e-05 -4.6198823187125616e-05 -4.7947340036961520e-05 -4.9802166622425643e-05 -5.1771118877390627e-05 -5.3862724152270436e-05 -5.6086297527306603e-05 -5.8452027660665203e-05 -6.0971073348822509e-05 -6.3655672409002135e-05 -6.6519264920017148e-05 -6.9576632975280927e-05 -7.2844059216304422e-05 -7.6339506969616449e-05 -8.0082825600348093e-05 -8.4095985215136456e-05 -8.8403345261438214e-05 -9.3031962508604893e-05 -9.8011945298120157e-05 -1.0337686216192771e-04 -1.0916421404991824e-04 -1.1541598136545994e-04 -1.2217925976665844e-04 -1.2950700132765029e-04 -1.3745888049778902e-04 -1.4610230892225036e-04 -1.5551362944995546e-04 -1.6577952576127253e-04 -1.7699869083354151e-04 -1.8928380839003243e-04 -2.0276391665089680e-04 -2.1758723987418840e-04 -2.3392459198324678e-04 -2.5197348439968601e-04 -2.7196310786372670e-04 -2.9416040256510030e-04 -3.1887748805525492e-04 -3.4648080415328002e-04 -3.7740241865813847e-04 -4.1215409242440707e-04 -4.5134487605030961e-04 -4.9570326319616658e-04 -5.4610526180874554e-04 -6.0361020654551146e-04 -6.6950678019567916e-04 -7.4537260790729872e-04 -8.3315204976271541e-04 -9.3525862045112441e-04 -1.0547110576361546e-03 -1.1953158301974142e-03 -1.3619144312068518e-03 -1.5607220677801075e-03 -1.7997968057292361e-03 -2.0896971757394522e-03 -2.4444153268677288e-03 -2.8827175451857667e-03 -3.4300920674858178e-03 -4.1216037649372218e-03 -5.0060851599263356e-03 -6.1522058280917532e-03 -7.6568477842880091e-03 -9.6551772358523386e-03 -1.2327855384621741e-02 -1.5888945354239157e-02 -2.0507071089244041e-02 -2.6041205026371212e-02 -3.1331178806185508e-02 -3.2558945760242410e-02 -2.0017227231440629e-02 2.6792847132708769e-02 1.4206798753063343e-01 3.6119868852549475e-01 6.7762877110050079e-01 1.0000000000000000e+00 0.0000000000000000e+00 -1.1675622168403698e-05 -1.7672928309524580e-05 -2.0748113210357008e-05 -2.2203037349579698e-05 -2.2858297782854117e-05 -2.3161004407685423e-05 -2.3327137143864359e-05 -2.3450985751507352e-05 -2.3570330923593757e-05 -2.3699271239975499e-05 -2.3842813212746955e-05 -2.4002742308540826e-05 -2.4179798239095239e-05 -2.4374425411901517e-05 -2.4587015497451968e-05 -2.4817980918453854e-05 -2.5067775611356115e-05 -2.5336900580043861e-05 -2.5625905666921615e-05 -2.5935390803944007e-05 -2.6266007559783988e-05 -2.6618461105186590e-05 -2.6993512572484681e-05 -2.7391981807142465e-05 -2.7814750537857499e-05 -2.8262765969329093e-05 -2.8737044761300362e-05 -2.9238677363010588e-05 -2.9768832732865279e-05 -3.0328763523768073e-05 -3.0919811797874813e-05 -3.1543415276938989e-05 -3.2201114122832629e-05 -3.2894558303597568e-05 -3.3625515662921445e-05 -3.4395880794047051e-05 -3.5207684747876189e-05 -3.6063105588627966e-05 -3.6964479891531909e-05 -3.7914315363967684e-05 -3.8915304755041240e-05 -3.9970341133421904e-05 -4.1082534598711833e-05 -4.2255230596089066e-05 -4.3492030103368674e-05 -4.4796811932296600e-05 -4.6173757302714543e-05 -4.7627376881376561e-05 -4.9162540636241831e-05 -5.0784510954281828e-05 -5.2498979402170175e-05 -5.4312107437885267e-05 -5.6230571507087784e-05 -5.8261613194346262e-05 -6.0413095186225078e-05 -6.2693563722144611e-05 -6.5112318242131455e-05 -6.7679489221681368e-05 -7.0406125457862106e-05 -7.3304292105567451e-05 -7.6387180776493641e-05 -7.9669233345359175e-05 -8.3166281624238832e-05 -8.6895705349302959e-05 -9.0876611020946027e-05 -9.5130034552244223e-05 -9.9679171509586175e-05 -1.0454963945771840e-04 -1.0976977736972772e-04 -1.1537098782629632e-04 -1.2138812915976883e-04 -1.2785996621138550e-04 -1.3482968954785454e-04 -1.4234551457608475e-04 -1.5046137475689306e-04 -1.5923772642196016e-04 -1.6874248571092958e-04 -1.7905212170647478e-04 -1.9025293543992004e-04 -2.0244256182390283e-04 -2.1573173945365603e-04 -2.3024640216446300e-04 -2.4613015862864706e-04 -2.6354724316298258e-04 -2.8268604130629642e-04 -3.0376331811462776e-04 -3.2702930900374311e-04 -3.5277387530266685e-04 -3.8133398050941918e-04 -4.1310281207629476e-04 -4.4854096433173056e-04 -4.8819021740448265e-04 -5.3269060361347989e-04 -5.8280166209520926e-04 -6.3942906252022745e-04 -7.0365815418469650e-04 -7.7679650862706251e-04 -8.6042822521062955e-04 -9.5648373151641986e-04 -1.0673301497892017e-03 -1.1958891798412685e-03 -1.3457920964327073e-03 -1.5215852310270245e-03 -1.7290047250452694e-03 -1.9753471658977943e-03 -2.2699741034527187e-03 -2.6250050754429897e-03 -3.0562780142596780e-03 -3.5846908311737698e-03 -4.2380863699354107e-03 -5.0539030863038506e-03 -6.0828645416709333e-03 -7.3939337892363084e-03 -9.0803202715742642e-03 -1.1264627862860425e-02 -1.4095934887192487e-02 -1.7717016136064488e-02 -2.2143917607463880e-02 -2.6921549679536541e-02 -3.0275527597004716e-02 -2.7300206463522780e-02 -6.7688919576855159e-03 5.2632640112355827e-02 1.8164586413492556e-01 4.0433993564471055e-01 7.0320336306916720e-01 1.0000000000000000e+00 0.0000000000000000e+00 -1.4570719390029864e-05 -2.1964350405377503e-05 -2.5730823376049344e-05 -2.7506225963291932e-05 -2.8305670710386580e-05 -2.8676708823268084e-05 -2.8882139395057294e-05 -2.9036276547454652e-05 -2.9184897553220116e-05 -2.9345152852769529e-05 -2.9523206727767549e-05 -2.9721314739354979e-05 -2.9940446035681000e-05 -3.0181192611712967e-05 -3.0444067713323306e-05 -3.0729599665820631e-05 -3.1038360773735847e-05 -3.1370976654363332e-05 -3.1728130100392433e-05 -3.2110563690905099e-05 -3.2519082347725886e-05 -3.2954556145782608e-05 -3.3417923470253245e-05 -3.3910194585452595e-05 -3.4432455659577844e-05 -3.4985873239400912e-05 -3.5571699140876820e-05 -3.6191275759397806e-05 -3.6846041871699893e-05 -3.7537539023279167e-05 -3.8267418546216326e-05 -3.9037449202963081e-05 -3.9849525474732911e-05 -4.0705676589958543e-05 -4.1608076421950208e-05 -4.2559054336270045e-05 -4.3561107014982181e-05 -4.4616911320915264e-05 -4.5729338363070000e-05 -4.6901468962968797e-05 -4.8136610655105686e-05 -4.9438316292356059e-05 -5.0810404386777126e-05 -5.2256981447585504e-05 -5.3782466621321871e-05 -5.5391618861888763e-05 -5.7089566816511291e-05 -5.8881841727462607e-05 -6.0774413806191323e-05 -6.2773732550280530e-05 -6.4886771382921204e-05 -6.7121077028002937e-05 -6.9484824255418111e-05 -7.1986876813984223e-05 -7.4636855344577577e-05 -7.7445213018704795e-05 -8.0423319842658203e-05 -8.3583556906749167e-05 -8.6939422019218781e-05 -9.0505648152796315e-05 -9.4298336320725092e-05 -9.8335105001463754e-05 -1.0263525866913392e-04 -1.0721997814065379e-04 -1.1211253570705111e-04 -1.1733853874276803e-04 -1.2292620636068880e-04 -1.2890668425599797e-04 -1.3531440346995787e-04 -1.4218748999996486e-04 -1.4956823378509872e-04 -1.5750362700511449e-04 -1.6604598307964609e-04 -1.7525365001090802e-04 -1.8519183472904101e-04 -1.9593355832825098e-04 -2.0756076582735601e-04 -2.2016561900553650e-04 -2.3385200678484059e-04 -2.4873731465491661e-04 -2.6495450399989967e-04 -2.8265456413050210e-04 -3.0200941328885724e-04 -3.2321534135037436e-04 -3.4649710990686093e-04 -3.7211285476858579e-04 -4.0035997013516879e-04 -4.3158219736262436e-04 -4.6617820071564412e-04 -5.0461198805965392e-04 -5.4742562882793887e-04 -5.9525484658125489e-04 -6.4884822940280344e-04 -7.0909101643302564e-04 -7.7703470246956972e-04 -8.5393408303985731e-04 -9.4129387057626716e-04 -1.0409276939221347e-03 -1.1550332177834414e-03 -1.2862883779956480e-03 -1.4379754487377099e-03 -1.6141420227933341e-03 -1.8198112527864645e-03 -2.0612582185338718e-03 -2.3463755388840398e-03 -2.6851599841669791e-03 -3.0903636561605582e-03 -3.5783691126811176e-03 -4.1703679316409288e-03 -4.8939445612549990e-03 -5.7851816181434638e-03 -6.8913726064904505e-03 -8.2742377313393799e-03 -1.0012844627164667e-02 -1.2203277562837896e-02 -1.4945974346860963e-02 -1.8295643100964046e-02 -2.2110656657079206e-02 -2.5659732732586833e-02 -2.6712208776054271e-02 -1.9719835817149499e-02 7.0702719298841223e-03 7.4259367353204944e-02 2.0874466505078274e-01 4.2811869689292137e-01 7.1353843543887352e-01 1.0000000000000000e+00 0.0000000000000000e+00 -1.7462817119298348e-05 -2.6257075071022382e-05 -3.0717333538993351e-05 -3.2813298782144471e-05 -3.3755868696816911e-05 -3.4194036127503175e-05 -3.4437823574979816e-05 -3.4621612013258458e-05 -3.4799088548922965e-05 -3.4990357740167143e-05 -3.5202670352591666e-05 -3.5438708903467505e-05 -3.5699648675736835e-05 -3.5986217603638027e-05 -3.6299044912585762e-05 -3.6638772024521837e-05 -3.7006087881103861e-05 -3.7401741226503675e-05 -3.7826546188054339e-05 -3.8281386091150243e-05 -3.8767216967853396e-05 -3.9285071202241044e-05 -3.9836061491913703e-05 -4.0421385233647585e-05 -4.1042329381224475e-05 -4.1700275765228500e-05 -4.2396706862858182e-05 -4.3133212066346331e-05 -4.3911494553171432e-05 -4.4733378844476840e-05 -4.5600819072429649e-05 -4.6515907955209496e-05 -4.7480886536056988e-05 -4.8498154814000455e-05 -4.9570283390052949e-05 -5.0700026190193974e-05 -5.1890334311259407e-05 -5.3144371113038457e-05 -5.4465528760943722e-05 -5.5857446403302694e-05 -5.7324030084593910e-05 -5.8869474493050951e-05 -6.0498286761418738e-05 -6.2215312648298648e-05 -6.4025765399795516e-05 -6.5935257504922182e-05 -6.7949835593434692e-05 -7.0076018888386567e-05 -7.2320841727593684e-05 -7.4691900612290968e-05 -7.7197406197350806e-05 -7.9846240789398682e-05 -8.2648022156639722e-05 -8.5613174524263634e-05 -8.8753007553879962e-05 -9.2079804181356676e-05 -9.5606918511110682e-05 -9.9348885247102915e-05 -1.0332154218159700e-04 -1.0754216732407854e-04 -1.1202963264454273e-04 -1.1680457693095712e-04 -1.2188960053256905e-04 -1.2730948492081047e-04 -1.3309144053812538e-04 -1.3926538729302549e-04 -1.4586427276996726e-04 -1.5292443373289883e-04 -1.6048600743885058e-04 -1.6859340078272754e-04 -1.7729582673748319e-04 -1.8664791884070084e-04 -1.9671043645548271e-04 -2.0755107641087249e-04 -2.1924540950473938e-04 -2.3187796325096384e-04 -2.4554347666667676e-04 -2.6034835903495453e-04 -2.7641239075447692e-04 -2.9387071089472135e-04 -3.1287614595413004e-04 -3.3360194798670562e-04 -3.5624502475699164e-04 -3.8102976089076583e-04 -4.0821255244565685e-04 -4.3808720833042575e-04 -4.7099140728379179e-04 -5.0731444300014463e-04 -5.4750654995259389e-04 -5.9209017795720179e-04 -6.4167367618091708e-04 -6.9696796961494329e-04 -7.5880697121579192e-04 -8.2817267574206599e-04 -9.0622614651993246e-04 -9.9434595728607159e-04 -1.0941761068721499e-03 -1.2076860235025885e-03 -1.3372460711203070e-03 -1.4857230172854099e-03 -1.6566013053616678e-03 -1.8541378057305661e-03 -2.0835601254689247e-03 -2.3513216914316038e-03 -2.6654308566292488e-03 -3.0358763235867458e-03 -3.4751771818220204e-03 -3.9990922709409651e-03 -4.6275284977634265e-03 -5.3856856369815390e-03 -6.3054503765615057e-03 -7.4269603145120239e-03 -8.7999714531417951e-03 -1.0483818583669223e-02 -1.2542369067008091e-02 -1.5023907732827739e-02 -1.7899494352408379e-02 -2.0895477267876560e-02 -2.3080359082359999e-02 -2.1951814753475327e-02 -1.1705089698425734e-02 1.9301929645550050e-02 9.0413479458419696e-02 2.2551511213259037e-01 4.3926445109471512e-01 7.1542041957456259e-01 1.0000000000000000e+00 0.0000000000000000e+00 -2.0343966862662546e-05 -3.0536861373242679e-05 -3.5690694529231760e-05 -3.8106878568216189e-05 -3.9191880402914117e-05 -3.9696363138430500e-05 -3.9977756115008495e-05 -4.0190566988465475e-05 -4.0396376095013677e-05 -4.0618199760980492e-05 -4.0864334292736417e-05 -4.1137858529415294e-05 -4.1440133632527661e-05 -4.1772010869687033e-05 -4.2134227661178145e-05 -4.2527533451875990e-05 -4.2952730101976453e-05 -4.3410686321915477e-05 -4.3902344525006100e-05 -4.4428725602485671e-05 -4.4990933254304512e-05 -4.5590158402206007e-05 -4.6227683915039825e-05 -4.6904889771116876e-05 -4.7623258700232719e-05 -4.8384382301911797e-05 -4.9189967663212850e-05 -5.0041844565674575e-05 -5.0941973394473815e-05 -5.1892453811533013e-05 -5.2895534196946654e-05 -5.3953621879824597e-05 -5.5069294259675251e-05 -5.6245310963206561e-05 -5.7484627141008301e-05 -5.8790407955760906e-05 -6.0166044345230490e-05 -6.1615170238133986e-05 -6.3141681438941540e-05 -6.4749756332220512e-05 -6.6443878499299470e-05 -6.8228861409007694e-05 -7.0109875484715705e-05 -7.2092477896077664e-05 -7.4182645343152291e-05 -7.6386810057151806e-05 -7.8711899358655432e-05 -8.1165379274774483e-05 -8.3755302736158543e-05 -8.6490362798064208e-05 -8.9379951384152854e-05 -9.2434224281663963e-05 -9.5664173285870785e-05 -9.9081706355161789e-05 -1.0269973660911339e-04 -1.0653228123303048e-04 -1.1059457170506837e-04 -1.1490317691202899e-04 -1.1947614072018772e-04 -1.2433313579798244e-04 -1.2949563600378266e-04 -1.3498711005512743e-04 -1.4083323934334718e-04 -1.4706216308744437e-04 -1.5370475481155216e-04 -1.6079493495833557e-04 -1.6837002495380022e-04 -1.7647114867727385e-04 -1.8514368858689334e-04 -1.9443780529390987e-04 -2.0440903058005684e-04 -2.1511894522841438e-04 -2.2663595544778341e-04 -2.3903618471665349e-04 -2.5240450063019601e-04 -2.6683569933304030e-04 -2.8243587475710805e-04 -2.9932400606372218e-04 -3.1763380318090682e-04 -3.3751585742773497e-04 -3.5914015383858508e-04 -3.8269901465133198e-04 -4.0841055848068807e-04 -4.3652277713721521e-04 -4.6731835430207828e-04 -5.0112037903088543e-04 -5.3829914226906069e-04 -5.7928024781646011e-04 -6.2455432427861854e-04 -6.7468869406299523e-04 -7.3034144247856238e-04 -7.9227844094804879e-04 -8.6139401921232371e-04 -9.3873615911807594e-04 -1.0255373105946171e-03 -1.1232522218445106e-03 -1.2336045443614215e-03 -1.3586444449492170e-03 -1.5008200570869096e-03 -1.6630663567352853e-03 -1.8489159914204781e-03 -2.0626377534159286e-03 -2.3094097736797280e-03 -2.5955361059769888e-03 -2.9287170487297511e-03 -3.3183850086585909e-03 -3.7761182793135664e-03 -4.3161433156455580e-03 -4.9559287790232401e-03 -5.7168546384032889e-03 -6.6248893562489515e-03 -7.7110813104506720e-03 -9.0113386367320965e-03 -1.0564075481893736e-02 -1.2401866874189165e-02 -1.4526797966676963e-02 -1.6843054864430145e-02 -1.8983738841848133e-02 -1.9898380332561430e-02 -1.6968723850540553e-02 -4.3906784700017062e-03 2.9073117151892074e-02 1.0153474028599932e-01 2.3489216869870300e-01 4.4293459910823219e-01 7.1313127764260298e-01 1.0000000000000000e+00 0.0000000000000000e+00 -2.3210884042356656e-05 -3.4797200282294126e-05 -4.0642645831927069e-05 -4.3378187602780326e-05 -4.4605007330218129e-05 -4.5175212343143625e-05 -4.5493623183618492e-05 -4.5734891190683925e-05 -4.5968491831272213e-05 -4.6220340104370537e-05 -4.6499759119153838e-05 -4.6810206227871559e-05 -4.7153214179092980e-05 -4.7529746958287349e-05 -4.7940642430158480e-05 -4.8386752213667155e-05 -4.8868986347345942e-05 -4.9388329312246935e-05 -4.9945847781011114e-05 -5.0542696109858556e-05 -5.1180121338517746e-05 -5.1859468274306910e-05 -5.2582184911205053e-05 -5.3349828304544244e-05 -5.4164070936378128e-05 -5.5026707584730437e-05 -5.5939662758570478e-05 -5.6904998813041142e-05 -5.7924924844864987e-05 -5.9001806401059358e-05 -6.0138176006738419e-05 -6.1336744574416253e-05 -6.2600413834344252e-05 -6.3932289927737563e-05 -6.5335698241589571e-05 -6.6814199542239192e-05 -6.8371607538386908e-05 -7.0012008088722908e-05 -7.1739780254654546e-05 -7.3559619318612173e-05 -7.5476561886814210e-05 -7.7496013318548363e-05 -7.9623777835287316e-05 -8.1866091634749341e-05 -8.4229659246913769e-05 -8.6721693405782620e-05 -8.9349958878104279e-05 -9.2122820794472980e-05 -9.5049297975683899e-05 -9.8139121713161675e-05 -1.0140280062357772e-04 -1.0485169243011787e-04 -1.0849808357776281e-04 -1.1235527751387350e-04 -1.1643769256306184e-04 -1.2076097066403350e-04 -1.2534209850487482e-04 -1.3019954261968335e-04 -1.3535340008710795e-04 -1.4082556688058942e-04 -1.4663992641589281e-04 -1.5282256106556943e-04 -1.5940198957665075e-04 -1.6640943390728891e-04 -1.7387911986012486e-04 -1.8184861650244683e-04 -1.9035921980897563e-04 -1.9945638688296559e-04 -2.0919022854005908e-04 -2.1961606933911329e-04 -2.3079508529647906e-04 -2.4279503127249663e-04 -2.5569107250085986e-04 -2.6956673732712243e-04 -2.8451501102381245e-04 -3.0063959426691585e-04 -3.1805635437338333e-04 -3.3689500243493618e-04 -3.5730103597836560e-04 -3.7943799519036571e-04 -4.0349008991506422e-04 -4.2966526512293763e-04 -4.5819878715338403e-04 -4.8935745152752148e-04 -5.2344453321923263e-04 -5.6080562479829692e-04 -6.0183554127268162e-04 -6.4698651087371670e-04 -6.9677791776305998e-04 -7.5180792268656990e-04 -8.1276736432415011e-04 -8.8045643590311021e-04 -9.5580474498