<?xml version='1.0' encoding='utf-8'?>
<VTKFile type="UnstructuredGrid" version="0.1" byte_order="LittleEndian">
  <UnstructuredGrid>
    <Piece NumberOfPoints="16384" NumberOfCells="16129">
      <PointData>
        <DataArray type="Float64" Name="velocity_u" NumberOfComponents="1">0.0000000000000000e+00 0.0000000000000000e+00 0.0000000000000000e+00 0.0000000000000000e+00 0.0000000000000000e+00 0.0000000000000000e+00 0.0000000000000000e+00 0.0000000000000000e+00 0.0000000000000000e+00 0.0000000000000000e+00 0.0000000000000000e+00 0.0000000000000000e+00 0.0000000000000000e+00 0.0000000000000000e+00 0.0000000000000000e+00 0.0000000000000000e+00 0.0000000000000000e+00 0.0000000000000000e+00 0.0000000000000000e+00 0.0000000000000000e+00 0.0000000000000000e+00 0.0000000000000000e+00 0.0000000000000000e+00 0.0000000000000000e+00 0.0000000000000000e+00 0.0000000000000000e+00 0.0000000000000000e+00 0.0000000000000000e+00 0.0000000000000000e+00 0.0000000000000000e+00 0.0000000000000000e+00 0.0000000000000000e+00 0.0000000000000000e+00 0.0000000000000000e+00 0.0000000000000000e+00 0.0000000000000000e+00 0.0000000000000000e+00 0.0000000000000000e+00 0.0000000000000000e+00 0.0000000000000000e+00 0.0000000000000000e+00 0.0000000000000000e+00 0.0000000000000000e+00 0.0000000000000000e+00 0.0000000000000000e+00 0.0000000000000000e+00 0.0000000000000000e+00 0.0000000000000000e+00 0.0000000000000000e+00 0.0000000000000000e+00 0.0000000000000000e+00 0.0000000000000000e+00 0.0000000000000000e+00 0.0000000000000000e+00 0.0000000000000000e+00 0.0000000000000000e+00 0.0000000000000000e+00 0.0000000000000000e+00 0.0000000000000000e+00 0.0000000000000000e+00 0.0000000000000000e+00 0.0000000000000000e+00 0.0000000000000000e+00 0.0000000000000000e+00 0.0000000000000000e+00 0.0000000000000000e+00 0.0000000000000000e+00 0.0000000000000000e+00 0.0000000000000000e+00 0.0000000000000000e+00 0.0000000000000000e+00 0.0000000000000000e+00 0.0000000000000000e+00 0.0000000000000000e+00 0.0000000000000000e+00 0.0000000000000000e+00 0.0000000000000000e+00 0.0000000000000000e+00 0.0000000000000000e+00 0.0000000000000000e+00 0.0000000000000000e+00 0.0000000000000000e+00 0.0000000000000000e+00 0.0000000000000000e+00 0.0000000000000000e+00 0.0000000000000000e+00 0.0000000000000000e+00 0.0000000000000000e+00 0.0000000000000000e+00 0.0000000000000000e+00 0.0000000000000000e+00 0.0000000000000000e+00 0.0000000000000000e+00 0.0000000000000000e+00 0.0000000000000000e+00 0.0000000000000000e+00 0.0000000000000000e+00 0.0000000000000000e+00 0.0000000000000000e+00 0.0000000000000000e+00 0.0000000000000000e+00 0.0000000000000000e+00 0.0000000000000000e+00 0.0000000000000000e+00 0.0000000000000000e+00 0.0000000000000000e+00 0.0000000000000000e+00 0.0000000000000000e+00 0.0000000000000000e+00 0.0000000000000000e+00 0.0000000000000000e+00 0.0000000000000000e+00 0.0000000000000000e+00 0.0000000000000000e+00 0.0000000000000000e+00 0.0000000000000000e+00 0.0000000000000000e+00 0.0000000000000000e+00 0.0000000000000000e+00 0.0000000000000000e+00 0.0000000000000000e+00 0.0000000000000000e+00 0.0000000000000000e+00 0.0000000000000000e+00 0.0000000000000000e+00 0.0000000000000000e+00 0.0000000000000000e+00 1.0000000000000000e+00 0.0000000000000000e+00 -2.2863539847252757e-07 -2.2878302260904180e-07 -2.2907801935689474e-07 -2.2952182979234974e-07 -2.3011518760032410e-07 -2.3085908061135888e-07 -2.3175489953392158e-07 -2.3280438970447646e-07 -2.3400960665648946e-07 -2.3537291650776029e-07 -2.3689701347492042e-07 -2.3858492910441714e-07 -2.4044003375175658e-07 -2.4246604427334804e-07 -2.4466704422410062e-07 -2.4704750810762050e-07 -2.4961231780141404e-07 -2.5236677121547948e-07 -2.5531659588377376e-07 -2.5846797766769906e-07 -2.6182759871342957e-07 -2.6540266841412497e-07 -2.6920094038067526e-07 -2.7323072791984783e-07 -2.7750093661963271e-07 -2.8202111677253016e-07 -2.8680151828916519e-07 -2.9185313171420477e-07 -2.9718772077975854e-07 -3.0281786756739026e-07 -3.0875704005251099e-07 -3.1501966721214875e-07 -3.2162120207584636e-07 -3.2857817669752072e-07 -3.3590827499238844e-07 -3.4363043778154318e-07 -3.5176498134703669e-07 -3.6033370011569874e-07 -3.6935995397716824e-07 -3.7886877447477086e-07 -3.8888701514842474e-07 -3.9944352901173657e-07 -4.1056933790599786e-07 -4.2229779115799838e-07 -4.3466474988466347e-07 -4.4770882150411064e-07 -4.6147162182977843e-07 -4.7599803090582701e-07 -4.9133645576467536e-07 -5.0753915075867041e-07 -5.2466261272358715e-07 -5.4276800734296598e-07 -5.6192158923361713e-07 -5.8219515084159986e-07 -6.0366656801954041e-07 -6.2642044930243460e-07 -6.5054883349850881e-07 -6.7615191865055566e-07 -7.0333888889747306e-07 -7.3222889812070777e-07 -7.6295217787604022e-07 -7.9565121783981530e-07 -8.3048206912970541e-07 -8.6761588490968076e-07 -9.0724072482569999e-07 -9.4956354979767792e-07 -9.9481239867037265e-07 -1.0432388766550809e-06 -1.0951210810261365e-06 -1.1507669719466419e-06 -1.2105181804672113e-06 -1.2747543435690174e-06 -1.3438980888153050e-06 -1.4184207755307931e-06 -1.4988491828123586e-06 -1.5857733887951843e-06 -1.6798559208665060e-06 -1.7818421874235938e-06 -1.8925725847234940e-06 -2.0129970113703087e-06 -2.1441921955507788e-06 -2.2873818856781546e-06 -2.4439604987880903e-06 -2.6155215367303524e-06 -2.8038918397908417e-06 -3.0111724175166912e-06 -3.2397874007413519e-06 -3.4925435917299932e-06 -3.7727030830230717e-06 -4.0840717183636148e-06 -4.4311076514476922e-06 -4.8190557202497159e-06 -5.2541144570341029e-06 -5.7436446060473226e-06 -6.2964314248091859e-06 -6.9230171661578389e-06 -7.6361252216287046e-06 -8.4512051303725821e-06 -9.3871392513341863e-06 -1.0467167140631962e-05 -1.1720105207117135e-05 -1.3181972757146982e-05 -1.4898184049706680e-05 -1.6926536733136147e-05 -1.9341337960797490e-05 -2.2239180899457223e-05 -2.5747151568917782e-05 -3.0034680072513807e-05 -3.5330964603007267e-05 -4.1951096968253806e-05 -5.0336101148277736e-05 -6.1115808879173521e-05 -7.5210331015481782e-05 -9.3998949036250984e-05 -1.1961125959101137e-04 -1.5544962613688114e-04 -2.0717108090850746e-04 -2.8463346066354134e-04 -4.0599157047097994e-04 -6.0688289825051932e-04 -9.6212954972014564e-04 -1.6364705152582268e-03 -2.9694888637921504e-03 -5.1984151971168121e-03 -2.7448300926604299e-03 7.8645907968358242e-02 1.0000000000000000e+00 0.0000000000000000e+00 -4.5712142245217830e-07 -4.5741691469884787e-07 -4.5800740319698478e-07 -4.5889446456864450e-07 -4.6007997987301998e-07 -4.6156624776461899e-07 -4.6335611365502712e-07 -4.6545303129433819e-07 -4.6786108663842623e-07 -4.7058501131979225e-07 -4.7363019120233530e-07 -4.7700267237763619e-07 -4.8070917389625301e-07 -4.8475711492036267e-07 -4.8915465218594189e-07 -4.9391071606804561e-07 -4.9903503994618626e-07 -5.0453819052269147e-07 -5.1043161010319955e-07 -5.1672767046628038e-07 -5.2343972591116429e-07 -5.3058215646353784e-07 -5.3817040943810578e-07 -5.4622105782318717e-07 -5.5475188308542414e-07 -5.6378196849153240e-07 -5.7333178295039444e-07 -5.8342325341280687e-07 -5.9407984543246993e-07 -6.0532666971046288e-07 -6.1719060930740173e-07 -6.2970044777525306e-07 -6.4288699261086772e-07 -6.5678321271227296e-07 -6.7142440857411413e-07 -6.8684840670066076e-07 -7.0309575179381941e-07 -7.2020989042837430e-07 -7.3823737565556362e-07 -7.5722812445817069e-07 -7.7723572161554502e-07 -7.9831773367148145e-07 -8.2053601818554312e-07 -8.4395705900229024e-07 -8.6865236489292332e-07 -8.9469892671067939e-07 -9.2217970002974768e-07 -9.5118411144271348e-07 -9.8180863234194640e-07 -1.0141574515534834e-06 -1.0483432201617768e-06 -1.0844878289474657e-06 -1.1227232420297790e-06 -1.1631924607522827e-06 -1.2060506493870629e-06 -1.2514663791513740e-06 -1.2996229590957761e-06 -1.3507199101446784e-06 -1.4049746651062469e-06 -1.4626244999493094e-06 -1.5239286545087514e-06 -1.5891706783412782e-06 -1.6586611207407374e-06 -1.7327406284371522e-06 -1.8117834146065789e-06 -1.8962011124219488e-06 -1.9864471686211586e-06 -2.0830219237336947e-06 -2.1864783814682322e-06 -2.2974286934183356e-06 -2.4165516176556980e-06 -2.5446012602676820e-06 -2.6824171372871613e-06 -2.8309355035622533e-06 -2.9912023228396608e-06 -3.1643886161050244e-06 -3.3518085997139101e-06 -3.5549405893599765e-06 -3.7754510555360534e-06 -4.0152229998588569e-06 -4.2763897542542312e-06 -4.5613747691090092e-06 -4.8729383965774634e-06 -5.2142337205007959e-06 -5.5888735765509397e-06 -6.0010106564330942e-06 -6.4554336626492783e-06 -6.9576839100520804e-06 -7.5141971266612938e-06 -8.1324761671844644e-06 -8.8213029929024073e-06 -9.5910005530487704e-06 -1.0453757375008078e-05 -1.1424032389829326e-05 -1.2519063762848398e-05 -1.3759512097027498e-05 -1.5170278803741167e-05 -1.6781556103696882e-05 -1.8630184843508416e-05 -2.0761424355433581e-05 -2.3231280970318390e-05 -2.6109601780697126e-05 -2.9484226922292098e-05 -3.3466624945849303e-05 -3.8199634130998089e-05 -4.3868234147930246e-05 -5.0714745170585016e-05 -5.9060603915782156e-05 -6.9338081362538295e-05 -8.2137321926895857e-05 -9.8277498642748221e-05 -1.1891680342580539e-04 -1.4572656573224712e-04 -1.8117420239007850e-04 -2.2899642421979094e-04 -2.9501584389619103e-04 -3.8859850108577550e-04 -5.2534808548640596e-04 -7.3225245376677738e-04 -1.0577156460346282e-03 -1.5905328658758766e-03 -2.4870977056465722e-03 -3.9295150886499170e-03 -5.2451942296868632e-03 3.2497626506571269e-03 1.0728134484932207e-01 1.0000000000000000e+00 0.0000000000000000e+00 -6.8531367992767588e-07 -6.8575560317546780e-07 -6.8664002026607140e-07 -6.8796863323500776e-07 -6.8974409730832785e-07 -6.9196988136948680e-07 -6.9465028943790511e-07 -6.9779051269225579e-07 -7.0139667336459196e-07 -7.0547585043866780e-07 -7.1003609200794669e-07 -7.1508642824262755e-07 -7.2063689910834552e-07 -7.2669859946030001e-07 -7.3328373104217006e-07 -7.4040564984034646e-07 -7.4807890941847189e-07 -7.5631931162052133e-07 -7.6514397203946352e-07 -7.7457139378554551e-07 -7.8462153709760695e-07 -7.9531588406282449e-07 -8.0667751375821678e-07 -8.1873120295442878e-07 -8.3150354821876569e-07 -8.4502308889203142e-07 -8.5932041823224725e-07 -8.7442829454735553e-07 -8.9038177611973800e-07 -9.0721838776544310e-07 -9.2497830313730838e-07 -9.4370452625617206e-07 -9.6344307971981416e-07 -9.8424322262881049e-07 -1.0061577052518117e-06 -1.0292430402045641e-06 -1.0535597716694091e-06 -1.0791727580479072e-06 -1.1061515052213890e-06 -1.1345705638845116e-06 -1.1645099628829507e-06 -1.1960556482221489e-06 -1.2292999412208536e-06 -1.2643420606513190e-06 -1.3012887286176419e-06 -1.3402548350648906e-06 -1.3813641396357161e-06 -1.4247500386489125e-06 -1.4705564441757737e-06 -1.5189387765586915e-06 -1.5700650306548045e-06 -1.6241169123061713e-06 -1.6812911113381846e-06 -1.7418007745756718e-06 -1.8058771647936528e-06 -1.8737714593638372e-06 -1.9457567140861686e-06 -2.0221300872316729e-06 -2.1032153759871974e-06 -2.1893658383721868e-06 -2.2809673050750011e-06 -2.3784416935662647e-06 -2.4822510418207827e-06 -2.5929020652162153e-06 -2.7109512133806946e-06 -2.8370103518400840e-06 -2.9717533020908598e-06 -3.1159233682905799e-06 -3.2703418445787598e-06 -3.4359175993399169e-06 -3.6136580620254139e-06 -3.8046819748948346e-06 -4.0102341104326251e-06 -4.2317021110987685e-06 -4.4706358169095215e-06 -4.7287696929442394e-06 -5.0080490357078106e-06 -5.3106605751766949e-06 -5.6390681293640478e-06 -5.9960542622693509e-06 -6.3847692984260708e-06 -6.8087892734670526e-06 -7.2721845356722137e-06 -7.7796011465281078e-06 -8.3363579458835262e-06 -8.9485628255865749e-06 -9.6232525130594827e-06 -1.0368561290530523e-05 -1.1193925538508995e-05 -1.2110332939851261e-05 -1.3130627733465131e-05 -1.4269886385765776e-05 -1.5545882221199663e-05 -1.6979663785489917e-05 -1.8596279229691672e-05 -2.0425688695193513e-05 -2.2503921570991961e-05 -2.4874555457783003e-05 -2.7590619616027234e-05 -3.0717064272961130e-05 -3.4333992365209143e-05 -3.8540926532151194e-05 -4.3462496885993971e-05 -4.9256101932833712e-05 -5.6122339630198567e-05 -6.4319376418651178e-05 -7.4182991040100505e-05 -8.6154909299018340e-05 -1.0082343503304208e-04 -1.1898261081240296e-04 -1.4171976831813346e-04 -1.7054734037231657e-04 -2.0760492603337036e-04 -2.5597486479368383e-04 -3.2018433211104472e-04 -4.0701828961752591e-04 -5.2685470120068627e-04 -6.9587221506921162e-04 -9.3965833167198318e-04 -1.2987365851855057e-03 -1.8348034819785414e-03 -2.6229647847468536e-03 -3.6193217570418454e-03 -3.5843123414499123e-03 8.2228600123518229e-03 1.1706993364812854e-01 1.0000000000000000e+00 0.0000000000000000e+00 -9.1306431940959331e-07 -9.1365195951535204e-07 -9.1482844645538129e-07 -9.1659596098260184e-07 -9.1895792199821525e-07 -9.2191890433852782e-07 -9.2548463588255701e-07 -9.2966203201648314e-07 -9.3445923572577949e-07 -9.3988564547308676e-07 -9.4595193471808187e-07 -9.5267007929139340e-07 -9.6005340392115784e-07 -9.6811664357128266e-07 -9.7687600558866144e-07 -9.8634922529327789e-07 -9.9655562264892875e-07 -1.0075161731943327e-06 -1.0192535956745504e-06 -1.0317924452306890e-06 -1.0451592024115661e-06 -1.0593823644381783e-06 -1.0744925560429805e-06 -1.0905226673369179e-06 -1.1075080054050678e-06 -1.1254864408538829e-06 -1.1444985492761577e-06 -1.1645877693396166e-06 -1.1858005963378204e-06 -1.2081868050647286e-06 -1.2317996805244480e-06 -1.2566962501074164e-06 -1.2829375369605362e-06 -1.3105888555222777e-06 -1.3397201430754191e-06 -1.3704063035037145e-06 -1.4027275595996151e-06 -1.4367698442269409e-06 -1.4726252603460909e-06 -1.5103926008850516e-06 -1.5501778936429803e-06 -1.5920949633763073e-06 -1.6362660490577288e-06 -1.6828225159582260e-06 -1.7319056560452560e-06 -1.7836675451459894e-06 -1.8382719608665007e-06 -1.8958954099366803e-06 -1.9567282961536018e-06 -2.0209762047787679e-06 -2.0888612769908775e-06 -2.1606237147300945e-06 -2.2365234953268923e-06 -2.3168423211718076e-06 -2.4018857629830436e-06 -2.4919855874952059e-06 -2.5875023512870543e-06 -2.6888283520865485e-06 -2.7963909453513269e-06 -2.9106562065492641e-06 -3.0321330125890420e-06 -3.1613776851180279e-06 -3.2989992680490631e-06 -3.4456654297390212e-06 -3.6021090541917511e-06 -3.7691357197477096e-06 -3.9476322549641603e-06 -4.1385764676857053e-06 -4.3430481800440360e-06 -4.5622418263180973e-06 -4.7974808677862215e-06 -5.0502342374523740e-06 -5.3221352018703157e-06 -5.6150032350070274e-06 -5.9308693698215123e-06 -6.2720053291896884e-06 -6.6409571286277445e-06 -7.0405843992698704e-06 -7.4741065509244623e-06 -7.9451565695146090e-06 -8.4578438598821693e-06 -9.0168285215546992e-06 -9.6274094505805705e-06 -1.0295628522324304e-05 -1.1028394304952366e-05 -1.1833630197764272e-05 -1.2720452293274662e-05 -1.3699383212633994e-05 -1.4782610699756935e-05 -1.5984302170095354e-05 -1.7320988582842063e-05 -1.8812035043743896e-05 -2.0480221268491218e-05 -2.2352461353888658e-05 -2.4460700874713897e-05 -2.6843041933792027e-05 -2.9545163338176425e-05 -3.2622124704268098e-05 -3.6140673922563049e-05 -4.0182220693533533e-05 -4.4846697806566928e-05 -5.0257615116847998e-05 -5.6568732046374844e-05 -6.3972946333028653e-05 -7.2714245990032592e-05 -8.3103940699036672e-05 -9.5542933322627125e-05 -1.1055260711481122e-04 -1.2881813856105206e-04 -1.5124991807837315e-04 -1.7907162329345764e-04 -2.1394786372661655e-04 -2.5817093303774901e-04 -3.1493599261900345e-04 -3.8874767651467728e-04 -4.8601767414809194e-04 -6.1592480037992174e-04 -7.9158731688520325e-04 -1.0314416987049939e-03 -1.3600756936241142e-03 -1.8050488264629509e-03 -2.3722858655626645e-03 -2.8922669621322837e-03 -1.9550573178099065e-03 1.1176456191463407e-02 1.2067495631650756e-01 1.0000000000000000e+00 0.0000000000000000e+00 -1.1402272021586576e-06 -1.1409596024150192e-06 -1.1424258937355190e-06 -1.1446288597775055e-06 -1.1475727272418206e-06 -1.1512631648186157e-06 -1.1557072968290780e-06 -1.1609137339465421e-06 -1.1668926066888231e-06 -1.1736555932923757e-06 -1.1812159495870004e-06 -1.1895885546627785e-06 -1.1987899757456867e-06 -1.2088385409001326e-06 -1.2197544063650188e-06 -1.2315596190768599e-06 -1.2442781885710808e-06 -1.2579361799642131e-06 -1.2725618237997154e-06 -1.2881856285814339e-06 -1.3048404907871315e-06 -1.3225618143016416e-06 -1.3413876545656241e-06 -1.3613588862191293e-06 -1.3825193773088843e-06 -1.4049161596174338e-06 -1.4285996079144213e-06 -1.4536236516526286e-06 -1.4800460252455085e-06 -1.5079285382002854e-06 -1.5373373467487462e-06 -1.5683432358699142e-06 -1.6010219395191353e-06 -1.6354545110673028e-06 -1.6717277259800918e-06 -1.7099344972294513e-06 -1.7501743161160537e-06 -1.7925537535516580e-06 -1.8371870349226340e-06 -1.8841966632971840e-06 -1.9337140670362925e-06 -1.9858802920923287e-06 -2.0408467866822102e-06 -2.0987762951008365e-06 -2.1598438324430565e-06 -2.2242377207940200e-06 -2.2921607214404834e-06 -2.3638313153256146e-06 -2.4394851365084552e-06 -2.5193765251351550e-06 -2.6037802063005141e-06 -2.6929931666533346e-06 -2.7873367885255746e-06 -2.8871592257188602e-06 -2.9928379888987745e-06 -3.1047827898601455e-06 -3.2234387522122740e-06 -3.3492900396364892e-06 -3.4828638828048911e-06 -3.6247350359220927e-06 -3.7755307957343391e-06 -3.9359367002942953e-06 -4.1067029248992153e-06 -4.2886514117540890e-06 -4.4826839176068630e-06 -4.6897912017720478e-06 -4.9110634456526852e-06 -5.1477019739191935e-06 -5.4010325668697193e-06 -5.6725207826199829e-06 -5.9637895166757358e-06 -6.2766389027782582e-06 -6.6130689969064117e-06 -6.9753060717299836e-06 -7.3658331781710258e-06 -7.7874252971998032e-06 -8.2431897546030256e-06 -8.7366132889739018e-06 -9.2716172062537976e-06 -9.8526217014153936e-06 -1.0484620915304719e-05 -1.1173271317601027e-05 -1.1924996224249898e-05 -1.2747109228446238e-05 -1.3647960501989352e-05 -1.4637111406543193e-05 -1.5725543423142093e-05 -1.6925908648210373e-05 -1.8252831859578031e-05 -1.9723276509297508e-05 -2.1356989424468158e-05 -2.3177043853905413e-05 -2.5210506407636607e-05 -2.7489259540376174e-05 -3.0051020936313637e-05 -3.2940614707644927e-05 -3.6211565154305606e-05 -3.9928106094113984e-05 -4.4167730561222167e-05 -4.9024446815854400e-05 -5.4612963140759548e-05 -6.1074104025079612e-05 -6.8581869931550976e-05 -7.7352705437201059e-05 -8.7657757209220948e-05 -9.9839207166994040e-05 -1.1433219445522973e-04 -1.3169444720795116e-04 -1.5264659417833760e-04 -1.7812729958474325e-04 -2.0936894307136368e-04 -2.4800155829473951e-04 -2.9619494940353171e-04 -3.5685049042380880e-04 -4.3385263363168920e-04 -5.3237927434694255e-04 -6.5923434034753539e-04 -8.2306858954983488e-04 -1.0341057612737552e-03 -1.3023243031960977e-03 -1.6307634602246641e-03 -1.9887537799616437e-03 -2.1663048068593467e-03 -7.5341800059564598e-04 1.2817232845461244e-02 1.2216408339777829e-01 1.0000000000000000e+00 0.0000000000000000e+00 -1.3666575703280190e-06 -1.3675333796897301e-06 -1.3692866873001661e-06 -1.3719208623795489e-06 -1.3754409519363161e-06 -1.3798537126584899e-06 -1.3851676411167865e-06 -1.3913930074731285e-06 -1.3985418870270920e-06 -1.4066281917529916e-06 -1.4156677134698768e-06 -1.4256781874182817e-06 -1.4366793706890283e-06 -1.4486931204606364e-06 -1.4617434643244395e-06 -1.4758566723563468e-06 -1.4910613483942574e-06 -1.5073885466288016e-06 -1.5248719020490984e-06 -1.5435477604122293e-06 -1.5634553088196643e-06 -1.5846367225637142e-06 -1.6071373385472053e-06 -1.6310058470914604e-06 -1.6562944869199049e-06 -1.6830592442924540e-06 -1.7113600770077840e-06 -1.7412611800082399e-06 -1.7728312835039921e-06 -1.8061439596012922e-06 -1.8412779313190292e-06 -1.8783174081557877e-06 -1.9173524754945886e-06 -1.9584795357084333e-06 -2.0018017760621423e-06 -2.0474296551854873e-06 -2.0954814343305066e-06 -2.1460837826063963e-06 -2.1993724503132924e-06 -2.2554929819969545e-06 -2.3146014682376491e-06 -2.3768653778898675e-06 -2.4424645078912333e-06 -2.5115920385392652e-06 -2.5844556605309110e-06 -2.6612787827013163e-06 -2.7423018768385817e-06 -2.8277839964606976e-06 -2.9180044492388080e-06 -3.0132646018897656e-06 -3.1138898620331552e-06 -3.2202319137899477e-06 -3.3326712276107728e-06 -3.4516198097933648e-06 -3.5775242032879288e-06 -3.7108688387225214e-06 -3.8521798257383850e-06 -4.0020291867298220e-06 -4.1610395264517600e-06 -4.3298892369646208e-06 -4.5093183906939768e-06 -4.7001353861450454e-06 -4.9032243473895431e-06 -5.1195533908560807e-06 -5.3501840101216156e-06 -5.5962817750788162e-06 -5.8591284058153225e-06 -6.1401353421462313e-06 -6.4408591488629733e-06 -6.7630191696474134e-06 -7.1085177207301141e-06 -7.4794630860869812e-06 -7.8781957696148574e-06 -8.3073186691901012e-06 -8.7697318976593203e-06 -9.2686729820555962e-06 -9.8077632828376317e-06 -1.0391061738465217e-05 -1.1023127373239769e-05 -1.1709092252730731e-05 -1.2454746767805719e-05 -1.3266639543469227e-05 -1.4152194928181753e-05 -1.5119851659626899e-05 -1.6179226983927465e-05 -1.7341311509997060e-05 -1.8618701388988752e-05 -2.0025876025219124e-05 -2.1579531549221889e-05 -2.3298982665005979e-05 -2.5206648729040988e-05 -2.7328644485326167e-05 -2.9695501080936881e-05 -3.2343049525047981e-05 -3.5313508538427276e-05 -3.8656830825571661e-05 -4.2432376510069747e-05 -4.6711003854536536e-05 -5.1577695408397165e-05 -5.7134872929811062e-05 -6.3506603849715278e-05 -7.0843967928230580e-05 -7.9331938273067616e-05 -8.9198248164034131e-05 -1.0072487025414309e-04 -1.1426293632476995e-04 -1.3025219000601060e-04 -1.4924639317663148e-04 -1.7194649132294991e-04 -1.9924374296496076e-04 -2.3227529121853845e-04 -2.7249447682955747e-04 -3.2175681573094408e-04 -3.8241838012102681e-04 -4.5743301981130454e-04 -5.5041179350350617e-04 -6.6555941822532430e-04 -8.0730470389911403e-04 -9.7924642368126262e-04 -1.1815885896657714e-03 -1.4045964641589564e-03 -1.6052613911233722e-03 -1.5735863472046421e-03 6.0020758839078852e-05 1.3737756620867295e-02 1.2285627971399377e-01 1.0000000000000000e+00 0.0000000000000000e+00 -1.5922120888868443e-06 -1.5932296190385947e-06 -1.5952665999577896e-06 -1.5983269410055477e-06 -1.6024164925055381e-06 -1.6075430810807230e-06 -1.6137165468745736e-06 -1.6209487800741797e-06 -1.6292537545189362e-06 -1.6386475669286442e-06 -1.6491484942266281e-06 -1.6607770712466107e-06 -1.6735561767342554e-06 -1.6875111137012026e-06 -1.7026696848568314e-06 -1.7190622797348979e-06 -1.7367219888630732e-06 -1.7556847423753096e-06 -1.7759894564995998e-06 -1.7976781776062165e-06 -1.8207962326230432e-06 -1.8453924023808979e-06 -1.8715191214818239e-06 -1.8992326917666972e-06 -1.9285934999807010e-06 -1.9596662511028333e-06 -1.9925202390534616e-06 -2.0272296593294691e-06 -2.0638739430843610e-06 -2.1025380934500237e-06 -2.1433130349490237e-06 -2.1862960087657865e-06 -2.2315910308703893e-06 -2.2793093958543181e-06 -2.3295702031944590e-06 -2.3825009137628788e-06 -2.4382379696474747e-06 -2.4969274926579430e-06 -2.5587260415769735e-06 -2.6238014101114852e-06 -2.6923334898630904e-06 -2.7645152453089295e-06 -2.8405538128228795e-06 -2.9206716911058191e-06 -3.0051080049442436e-06 -3.0941198834969737e-06 -3.1879840122292832e-06 -3.2869983670209977e-06 -3.3914840995283390e-06 -3.5017875829734968e-06 -3.6182826889759281e-06 -3.7413733499548349e-06 -3.8714963911039092e-06 -4.0091246134816218e-06 -4.1547701960430152e-06 -4.3089885291880667e-06 -4.4723825226091273e-06 -4.6456073660379241e-06 -4.8293757871779957e-06 -5.0244639529874037e-06 -5.2317181356606413e-06 -5.4520621689006330e-06 -5.6865057481816375e-06 -5.9361537630124888e-06 -6.2022168779203756e-06 -6.4860234859117537e-06 -6.7890331654834860e-06 -7.1128519126247056e-06 -7.4592494589200084e-06 -7.8301789168087701e-06 -8.2277990934971721e-06 -8.6545000447635888e-06 -9.1129324138133128e-06 -9.6060409309872195e-06 -1.0137102703772553e-05 -1.0709771435000947e-05 -1.1328128686392618e-05 -1.1996743011551592e-05 -1.2720738250915307e-05 -1.3505873136694738e-05 -1.4358634373412660e-05 -1.5286345181171026e-05 -1.6297292281804255e-05 -1.7400875499413902e-05 -1.8607784309896488e-05 -1.9930206307249117e-05 -2.1382074562690569e-05 -2.2979362448273287e-05 -2.4740435652181851e-05 -2.6686473858526167e-05 -2.8841978243736627e-05 -3.1235384270490985e-05 -3.3899803967668638e-05 -3.6873928871097515e-05 -4.0203132817369652e-05 -4.3940823596964136e-05 -4.8150106131628467e-05 -5.2905837360452403e-05 -5.8297174388842059e-05 -6.4430745617472662e-05 -7.1434611398937453e-05 -7.9463225672253814e-05 -8.8703666998559243e-05 -9.9383478690019027e-05 -1.1178053937489927e-04 -1.2623547776338486e-04 -1.4316723614108182e-04 -1.6309244417864202e-04 -1.8664923490757115e-04 -2.1462588985442937e-04 -2.4799400189839135e-04 -2.8794424214420285e-04 -3.3591945632034550e-04 -3.9363318866065828e-04 -4.6304919861315423e-04 -5.4627480579086743e-04 -6.4528155640633327e-04 -7.6130197236952976e-04 -8.9364431418739677e-04 -1.0374209269069915e-03 -1.1784309864186220e-03 -1.2736652623866692e-03 -1.1254626702671446e-03 5.9919538993766317e-04 1.4273463265079375e-02 1.2321358354857252e-01 1.0000000000000000e+00 0.0000000000000000e+00 -1.8167490649543628e-06 -1.8179063570806522e-06 -1.8202231275670488e-06 -1.8237037943452987e-06 -1.8283549839856550e-06 -1.8341855649387460e-06 -1.8412066864796173e-06 -1.8494318164378621e-06 -1.8588767785486840e-06 -1.8695598011080605e-06 -1.8815015868610930e-06 -1.8947254000672346e-06 -1.9092571559467912e-06 -1.9251255037404977e-06 -1.9423619124534385e-06 -1.9610007780528777e-06 -1.9810795603140158e-06 -2.0026389380201807e-06 -2.0257229654668330e-06 -2.0503792284658867e-06 -2.0766590155300673e-06 -2.1046175181398248e-06 -2.1343140554282962e-06 -2.1658123085779359e-06 -2.1991805635798385e-06 -2.2344919809697287e-06 -2.2718249093084052e-06 -2.3112632342605448e-06 -2.3528967393923424e-06 -2.3968214723934494e-06 -2.4431401423138673e-06 -2.4919625783674010e-06 -2.5434062501448347e-06 -2.5975968229032019e-06 -2.6546687361272081e-06 -2.7147658294535627e-06 -2.7780420466705178e-06 -2.8446622157139864e-06 -2.9148028800287761e-06 -2.9886531826428117e-06 -3.0664158450219781e-06 -3.1483082755073770e-06 -3.2345637921080097e-06 -3.3254329251504219e-06 -3.4211848124637284e-06 -3.5221087490927454e-06 -3.6285159317785516e-06 -3.7407413792055744e-06 -3.8591460082140334e-06 -3.9841189109091009e-06 -4.1160799060649615e-06 -4.2554823817179456e-06 -4.4028163999176783e-06 -4.5586120893932299e-06 -4.7234434334684184e-06 -4.8979325372747376e-06 -5.0827543690934741e-06 -5.2786419759151014e-06 -5.4863922823244562e-06 -5.7068726200370159e-06 -5.9410280460737764e-06 -6.1898894745920298e-06 -6.4545827698009074e-06 -6.7363390319987112e-06 -7.0365062070975905e-06 -7.3565620750713775e-06 -7.6981288435272168e-06 -8.0629897539812031e-06 -8.4531079891473453e-06 -8.8706479989618958e-06 -9.3179995866666949e-06 -9.7978054697323056e-06 -1.0312992952377101e-05 -1.0866810034048676e-05 -1.1462866517332142e-05 -1.2105181301829130e-05 -1.2798237102868379e-05 -1.3547043477450955e-05 -1.4357209406880652e-05 -1.5235027555575774e-05 -1.6187572437884020e-05 -1.7222814550832673e-05 -1.8349753432920542e-05 -1.9578573733648025e-05 -2.0920828534074193e-05 -2.2389654831483327e-05 -2.4000028035697980e-05 -2.5769063582859098e-05 -2.7716374770939465e-05 -2.9864498801325589e-05 -3.2239406114740341e-05 -3.4871110447992751e-05 -3.7794401611617359e-05 -4.1049729118938815e-05 -4.4684270291802938e-05 -4.8753224574142627e-05 -5.3321386980734431e-05 -5.8465065118443735e-05 -6.4274419180191482e-05 -7.0856323713941883e-05 -7.8337870541520061e-05 -8.6870656334454952e-05 -9.6636025302808894e-05 -1.0785146029288216e-04 -1.2077833068900292e-04 -1.3573119922002442e-04 -1.5308883266452339e-04 -1.7330691238426354e-04 -1.9693211438300058e-04 -2.2461657955775651e-04 -2.5713058439628202e-04 -2.9536903353415139e-04 -3.4034357846013326e-04 -3.9314571382666652e-04 -4.5485570666222846e-04 -5.2635601896875556e-04 -6.0798475029309111e-04 -6.9893490340282196e-04 -7.9626540277393800e-04 -8.9325336870048539e-04 -9.7569790368856049e-04 -1.0050560242972821e-03 -7.9643938335011274e-04 9.5865519002214026e-04 1.4599274630405477e-02 1.2341471341786948e-01 1.0000000000000000e+00 0.0000000000000000e+00 -2.0401287330210260e-06 -2.0414235840376354e-06 -2.0440157407106790e-06 -2.0479101108935761e-06 -2.0531140708633937e-06 -2.0596374990004493e-06 -2.0674928151317966e-06 -2.0766950185200849e-06 -2.0872617294513198e-06 -2.0992132471547424e-06 -2.1125726296391364e-06 -2.1273657864603653e-06 -2.1436215705198150e-06 -2.1613718672377129e-06 -2.1806516957765644e-06 -2.2014993378405108e-06 -2.2239564926381287e-06 -2.2480684413550503e-06 -2.2738842096156999e-06 -2.3014567365766381e-06 -2.3308430699035585e-06 -2.3621045933205531e-06 -2.3953072740237547e-06 -2.4305219168948439e-06 -2.4678244331635776e-06 -2.5072961451422096e-06 -2.5490241351536565e-06 -2.5931016215444224e-06 -2.6396283429314735e-06 -2.6887109600190927e-06 -2.7404635072948629e-06 -2.7950079122995030e-06 -2.8524745654827522e-06 -2.9130029158098914e-06 -2.9767420989748238e-06 -3.0438516330417388e-06 -3.1145022002689829e-06 -3.1888764972460587e-06 -3.2671701348599046e-06 -3.3495926110022663e-06 -3.4363684019960001e-06 -3.5277381845266204e-06 -3.6239601557475052e-06 -3.7253114355400434e-06 -3.8320895951678885e-06 -3.9446143733020230e-06 -4.0632295875628510e-06 -4.1883052103539821e-06 -4.3202396193067415e-06 -4.4594620928238246e-06 -4.6064356020669806e-06 -4.7616598830604391e-06 -4.9256747777651736e-06 -5.0990639206370480e-06 -5.2824588807062253e-06 -5.4765437907559386e-06 -5.6820604400753756e-06 -5.8998138862241016e-06 -6.1306787376177622e-06 -6.3756062139098328e-06 -6.6356319959347980e-06 -6.9118849305329752e-06 -7.2055968039942088e-06 -7.5181133982324315e-06 -7.8509069054275962e-06 -8.2055897786559396e-06 -8.5839302962158035e-06 -8.9878702258368243e-06 -9.4195448627146041e-06 -9.8813056495766264e-06 -1.0375745752577845e-05 -1.0905729158633810e-05 -1.1474423879176890e-05 -1.2085339823237757e-05 -1.2742372018516766e-05 -1.3449850074645007e-05 -1.4212594980560756e-05 -1.5035984464626046e-05 -1.5926028292571397e-05 -1.6889455167413580e-05 -1.7933813309766345e-05 -1.9067587169794766e-05 -2.0300333110894197e-05 -2.1642837492413144e-05 -2.3107301306596871e-05 -2.4707556372969539e-05 -2.6459319124875758e-05 -2.8380489132725327e-05 -3.0491500999675506e-05 -3.2815740395759083e-05 -3.5380037044335058e-05 -3.8215249806641775e-05