<?xml version='1.0' encoding='utf-8'?>
<VTKFile type="UnstructuredGrid" version="0.1" byte_order="LittleEndian">
  <UnstructuredGrid>
    <Piece NumberOfPoints="16384" NumberOfCells="16129">
      <PointData>
        <DataArray type="Float64" Name="velocity_u" NumberOfComponents="1">0.0000000000000000e+00 0.0000000000000000e+00 0.0000000000000000e+00 0.0000000000000000e+00 0.0000000000000000e+00 0.0000000000000000e+00 0.0000000000000000e+00 0.0000000000000000e+00 0.0000000000000000e+00 0.0000000000000000e+00 0.0000000000000000e+00 0.0000000000000000e+00 0.0000000000000000e+00 0.0000000000000000e+00 0.0000000000000000e+00 0.0000000000000000e+00 0.0000000000000000e+00 0.0000000000000000e+00 0.0000000000000000e+00 0.0000000000000000e+00 0.0000000000000000e+00 0.0000000000000000e+00 0.0000000000000000e+00 0.0000000000000000e+00 0.0000000000000000e+00 0.0000000000000000e+00 0.0000000000000000e+00 0.0000000000000000e+00 0.0000000000000000e+00 0.0000000000000000e+00 0.0000000000000000e+00 0.0000000000000000e+00 0.0000000000000000e+00 0.0000000000000000e+00 0.0000000000000000e+00 0.0000000000000000e+00 0.0000000000000000e+00 0.0000000000000000e+00 0.0000000000000000e+00 0.0000000000000000e+00 0.0000000000000000e+00 0.0000000000000000e+00 0.0000000000000000e+00 0.0000000000000000e+00 0.0000000000000000e+00 0.0000000000000000e+00 0.0000000000000000e+00 0.0000000000000000e+00 0.0000000000000000e+00 0.0000000000000000e+00 0.0000000000000000e+00 0.0000000000000000e+00 0.0000000000000000e+00 0.0000000000000000e+00 0.0000000000000000e+00 0.0000000000000000e+00 0.0000000000000000e+00 0.0000000000000000e+00 0.0000000000000000e+00 0.0000000000000000e+00 0.0000000000000000e+00 0.0000000000000000e+00 0.0000000000000000e+00 0.0000000000000000e+00 0.0000000000000000e+00 0.0000000000000000e+00 0.0000000000000000e+00 0.0000000000000000e+00 0.0000000000000000e+00 0.0000000000000000e+00 0.0000000000000000e+00 0.0000000000000000e+00 0.0000000000000000e+00 0.0000000000000000e+00 0.0000000000000000e+00 0.0000000000000000e+00 0.0000000000000000e+00 0.0000000000000000e+00 0.0000000000000000e+00 0.0000000000000000e+00 0.0000000000000000e+00 0.0000000000000000e+00 0.0000000000000000e+00 0.0000000000000000e+00 0.0000000000000000e+00 0.0000000000000000e+00 0.0000000000000000e+00 0.0000000000000000e+00 0.0000000000000000e+00 0.0000000000000000e+00 0.0000000000000000e+00 0.0000000000000000e+00 0.0000000000000000e+00 0.0000000000000000e+00 0.0000000000000000e+00 0.0000000000000000e+00 0.0000000000000000e+00 0.0000000000000000e+00 0.0000000000000000e+00 0.0000000000000000e+00 0.0000000000000000e+00 0.0000000000000000e+00 0.0000000000000000e+00 0.0000000000000000e+00 0.0000000000000000e+00 0.0000000000000000e+00 0.0000000000000000e+00 0.0000000000000000e+00 0.0000000000000000e+00 0.0000000000000000e+00 0.0000000000000000e+00 0.0000000000000000e+00 0.0000000000000000e+00 0.0000000000000000e+00 0.0000000000000000e+00 0.0000000000000000e+00 0.0000000000000000e+00 0.0000000000000000e+00 0.0000000000000000e+00 0.0000000000000000e+00 0.0000000000000000e+00 0.0000000000000000e+00 0.0000000000000000e+00 0.0000000000000000e+00 0.0000000000000000e+00 0.0000000000000000e+00 0.0000000000000000e+00 1.0000000000000000e+00 0.0000000000000000e+00 -9.6789778399066007e-07 -1.2603579696679038e-06 -1.3431728745285655e-06 -1.3646682087944683e-06 -1.3716585813338319e-06 -1.3763013927922878e-06 -1.3813094794588786e-06 -1.3871988186827941e-06 -1.3940470185758259e-06 -1.4018634985279391e-06 -1.4106550461163244e-06 -1.4204336767288466e-06 -1.4312159513116151e-06 -1.4430219148739826e-06 -1.4558745090701569e-06 -1.4697993301001066e-06 -1.4848245777256011e-06 -1.5009810913239099e-06 -1.5183024134348831e-06 -1.5368248676401942e-06 -1.5565876687274808e-06 -1.5776330797693803e-06 -1.6000066024749049e-06 -1.6237571707388961e-06 -1.6489373356036105e-06 -1.6756034633766373e-06 -1.7038159760731938e-06 -1.7336396346640078e-06 -1.7651438355566107e-06 -1.7984029012616445e-06 -1.8334963872862285e-06 -1.8705094477804290e-06 -1.9095332709573855e-06 -1.9506655478393905e-06 -1.9940109370994854e-06 -2.0396815410796363e-06 -2.0877974499559208e-06 -2.1384873864134238e-06 -2.1918894220721216e-06 -2.2481517214633419e-06 -2.3074333230180600e-06 -2.3699050169905063e-06 -2.4357503540581142e-06 -2.5051667511688399e-06 -2.5783666535681450e-06 -2.6555787861703235e-06 -2.7370495818327562e-06 -2.8230448227699556e-06 -2.9138514399147226e-06 -3.0097794205899329e-06 -3.1111638841383432e-06 -3.2183674463921270e-06 -3.3317829157513957e-06 -3.4518362635363384e-06 -3.5789898508767699e-06 -3.7137460252668303e-06 -3.8566512205343062e-06 -4.0083005698149965e-06 -4.1693429816289109e-06 -4.3404867635275115e-06 -4.5225060187345579e-06 -4.7162479645115145e-06 -4.9226411525484321e-06 -5.1427046175303680e-06 -5.3775582139188341e-06 -5.6284344709266821e-06 -5.8966921127566122e-06 -6.1838313267336308e-06 -6.4915111191179754e-06 -6.8215693103683923e-06 -7.1760455652347768e-06 -7.5572076953444763e-06 -7.9675817887021752e-06 -8.4099871772680261e-06 -8.8875771866339350e-06 -9.4038862880648955e-06 -9.9628846184762534e-06 -1.0569041779301074e-05 -1.1227402180014826e-05 -1.1943673684382477e-05 -1.2724331407203687e-05 -1.3576740101294760e-05 -1.4509300218696042e-05 -1.5531622881267836e-05 -1.6654738981256386e-05 -1.7891349716034779e-05 -1.9256129212512201e-05 -2.0766092208678837e-05 -2.2441042090378238e-05 -2.4304119500721736e-05 -2.6382478338441874e-05 -2.8708123062720249e-05 -3.1318951622919192e-05 -3.4260063447535902e-05 -3.7585410533517256e-05 -4.1359895598179827e-05 -4.5662059619467001e-05 -5.0587552240948875e-05 -5.6253649683409581e-05 -6.2805191219707934e-05 -7.0422457842780599e-05 -7.9331737064146563e-05 -8.9819651444100529e-05 -1.0225283386961360e-04 -1.1710530510913378e-04 -1.3499712503999996e-04 -1.5674983496179840e-04 -1.8346738195970536e-04 -2.1665653149502694e-04 -2.5840991010084888e-04 -3.1169097601260715e-04 -3.8078975262518519e-04 -4.7207413461225614e-04 -5.9527181194484434e-04 -7.6574352010758801e-04 -1.0086851768876469e-03 -1.3672152786897984e-03 -1.9183967985835122e-03 -2.8048527338505212e-03 -4.2919454230003640e-03 -6.8389524023650290e-03 -1.1017314154727948e-02 -1.6388245232050097e-02 -1.5639525585556771e-02 3.0058961293704646e-02 2.7509781760867946e-01 1.0000000000000000e+00 0.0000000000000000e+00 -2.2270842517071001e-06 -2.8463655627072189e-06 -3.0242434262865288e-06 -3.0726404610749346e-06 -3.0893007225271057e-06 -3.1003171502917960e-06 -3.1118620942504043e-06 -3.1252505409310791e-06 -3.1407391379694667e-06 -3.1583837641290426e-06 -3.1782134821887836e-06 -3.2002608623959839e-06 -3.2245654919367747e-06 -3.2511735227852353e-06 -3.2801371157454218e-06 -3.3115141978078989e-06 -3.3453684423984484e-06 -3.3817693658823984e-06 -3.4207924889896599e-06 -3.4625195610013697e-06 -3.5070388583165851e-06 -3.5544455474699537e-06 -3.6048420803554268e-06 -3.6583385982735830e-06 -3.7150533567340032e-06 -3.7751132046084074e-06 -3.8386541343170292e-06 -3.9058218853683641e-06 -3.9767725778163218e-06 -4.0516733845157572e-06 -4.1307032814627930e-06 -4.2140538996953808e-06 -4.3019304573232626e-06 -4.3945527350323622e-06 -4.4921561013637937e-06 -4.5949926456797757e-06 -4.7033324700012601e-06 -4.8174651297176301e-06 -4.9377011768897804e-06 -5.0643737999513227e-06 -5.1978406190373708e-06 -5.3384856989254337e-06 -5.4867217789536722e-06 -5.6429926853187805e-06 -5.8077759451539880e-06 -5.9815856918834481e-06 -6.1649759317970837e-06 -6.3585441532396753e-06 -6.5629352372712209e-06 -6.7788457258167201e-06 -7.0070285948940595e-06 -7.2482986352310333e-06 -7.5035384278031651e-06 -7.7737049014867175e-06 -8.0598365938346777e-06 -8.3630618123421941e-06 -8.6846078034664215e-06 -9.0258109448926338e-06 -9.3881280725843902e-06 -9.7731492280799793e-06 -1.0182612104431067e-05 -1.0618418308669686e-05 -1.1082651556904289e-05 -1.1577598160796978e-05 -1.2105770329999262e-05 -1.2669932695035065e-05 -1.3273132345899236e-05 -1.3918732906445766e-05 -1.4610453490256530e-05 -1.5352413395683552e-05 -1.6149183265525806e-05 -1.7005843662058133e-05 -1.7928052522197324e-05 -1.8922123228049377e-05 -1.9995115052374729e-05 -2.1154938038853026e-05 -2.2410474993526195e-05 -2.3771723822743608e-05 -2.5249964147662734e-05 -2.6857953275117583e-05 -2.8610157601881800e-05 -3.0523026097002413e-05 -3.2615314126705982e-05 -3.4908469298696650e-05 -3.7427094074197812e-05 -4.0199501693785744e-05 -4.3258385769342792e-05 -4.6641631451519019e-05 -5.0393304117477874e-05 -5.4564859342746615e-05 -5.9216630425575774e-05 -6.4419668523738627e-05 -7.0258032911831860e-05 -7.6831657764645238e-05 -8.4259963882576898e-05 -9.2686441623569040e-05 -1.0228450874346051e-04 -1.1326505529344359e-04 -1.2588624282922290e-04 -1.4046634556772318e-04 -1.5740073693138446e-04 -1.7718458834449621e-04 -2.0044353555280823e-04 -2.2797559826854909e-04 -2.6080921320800217e-04 -3.0028468968219032e-04 -3.4817026295154018e-04 -4.0683015591643320e-04 -4.7947233990940032e-04 -5.7052101079224106e-04 -6.8618876015338339e-04 -8.3537666506196598e-04 -1.0311278238022187e-03 -1.2930427380978529e-03 -1.6514164231583920e-03 -2.1545365423396956e-03 -2.8818448879828667e-03 -3.9676363617414372e-03 -5.6409592930880921e-03 -8.2755393088004506e-03 -1.2362963993258059e-02 -1.7958034552932437e-02 -2.1811928216626017e-02 -6.4897424093019115e-03 9.0717157275092455e-02 4.1290409217041707e-01 1.0000000000000000e+00 0.0000000000000000e+00 -3.5662223583441739e-06 -4.5238883228511502e-06 -4.7981281679308012e-06 -4.8737993578239639e-06 -4.9005885423361665e-06 -4.9184527931783137e-06 -4.9369938936643094e-06 -4.9583465296659883e-06 -4.9829706614799608e-06 -5.0109845200996159e-06 -5.0424484051718125e-06 -5.0774205056892900e-06 -5.1159666048721570e-06 -5.1581612900082086e-06 -5.2040879323077683e-06 -5.2538386774580085e-06 -5.3075145722189025e-06 -5.3652257918756126e-06 -5.4270919508975626e-06 -5.4932425059455265e-06 -5.5638172531947377e-06 -5.6389668945000714e-06 -5.7188536381786928e-06 -5.8036518274829018e-06 -5.8935486265365856e-06 -5.9887447974723273e-06 -6.0894555705738067e-06 -6.1959115820883711e-06 -6.3083598688629209e-06 -6.4270649482276115e-06 -6.5523100229974686e-06 -6.6843983163845379e-06 -6.8236545051936868e-06 -6.9704262363529494e-06 -7.1250857687870408e-06 -7.2880318091313587e-06 -7.4596915663613053e-06 -7.6405229906360173e-06 -7.8310171667527420e-06 -8.0317009014821594e-06 -8.2431395878288112e-06 -8.4659403896539302e-06 -8.7007557278825946e-06 -8.9482870622343819e-06 -9.2092890408917318e-06 -9.4845741225427869e-06 -9.7750177081706795e-06 -1.0081563754797674e-05 -1.0405230895986556e-05 -1.0747119212297081e-05 -1.1108417816344181e-05 -1.1490413311288775e-05 -1.1894499116413913e-05 -1.2322185750540922e-05 -1.2775112300129078e-05 -1.3255059282544944e-05 -1.3763962998442535e-05 -1.4303931481675250e-05 -1.4877262335129219e-05 -1.5486462838028910e-05 -1.6134272596668090e-05 -1.6823688926851183e-05 -1.7557995339152595e-05 -1.8340793757474544e-05 -1.9176041104717026e-05 -2.0068090749665268e-05 -2.1021739433175301e-05 -2.2042280665430868e-05 -2.3135565760590362e-05 -2.4308073590647903e-05 -2.5566990309949522e-05 -2.6920300872355533e-05 -2.8376894552655967e-05 -2.9946686690784944e-05 -3.1640759256580657e-05 -3.3471523922496470e-05 -3.5452912161638403e-05 -3.7600596974733670e-05 -3.9932251613341582e-05 -4.2467853072769460e-05 -4.5230040401607684e-05 -4.8244538554428661e-05 -5.1540659976771582e-05 -5.5151900802858684e-05 -5.9116654037170506e-05 -6.3479065761538610e-05 -6.8290065667242462e-05 -7.3608613470832934e-05 -7.9503214892693566e-05 -8.6053773410259675e-05 -9.3353862714134044e-05 -1.0151353191664048e-04 -1.1066278816421841e-04 -1.2095594438302324e-04 -1.3257708210191550e-04 -1.4574696209928624e-04 -1.6073182635595570e-04 -1.7785469256027868e-04 -1.9750996359058453e-04 -2.2018248273584454e-04 -2.4647260954684363e-04 -2.7712953620164589e-04 -3.1309600424174125e-04 -3.5556897790615905e-04 -4.0608293524391307e-04 -4.6662564794004843e-04 -5.3980129865813231e-04 -6.2906363830123448e-04 -7.3905447853685993e-04 -8.7610338271291738e-04 -1.0489786471009782e-03 -1.2700376534390911e-03 -1.5570245614034595e-03 -1.9359372239045615e-03 -2.4456865258192578e-03 -3.1457689768051968e-03 -4.1288500332933376e-03 -5.5403176213759380e-03 -7.6024024685672834e-03 -1.0612679779852516e-02 -1.4762462411061836e-02 -1.9153606664030834e-02 -1.7933292161919225e-02 1.1771387528324658e-02 1.3555729859974386e-01 4.6609186681683995e-01 1.0000000000000000e+00 0.0000000000000000e+00 -4.9222136083915015e-06 -6.2224613566541705e-06 -6.5931448984376946e-06 -6.6956958993673385e-06 -6.7324512189578013e-06 -6.7571684209364522e-06 -6.7827749084515250e-06 -6.8121787319077548e-06 -6.8460302159288633e-06 -6.8845087807125622e-06 -6.9277075679565592e-06 -6.9757120422812084e-06 -7.0286153742492742e-06 -7.0865213688065755e-06 -7.1495451173139527e-06 -7.2178133263478680e-06 -7.2914646607941981e-06 -7.3706501507328675e-06 -7.4555336839843034e-06 -7.5462926024585524e-06 -7.6431183955218914e-06 -7.7462174590663519e-06 -7.8558118978183478e-06 -7.9721403860603300e-06 -8.0954591265869464e-06 -8.2260429306114606e-06 -8.3641864030109430e-06 -8.5102052078475744e-06 -8.6644374225508518e-06 -8.8272450240727413e-06 -8.9990155394793134e-06 -9.1801638495931444e-06 -9.3711341180384852e-06 -9.5724018598393869e-06 -9.7844762143383147e-06 -1.0007902478747780e-05 -1.0243264897265522e-05 -1.0491189668499449e-05 -1.0752348181124011e-05 -1.1027460557427768e-05 -1.1317299585222746e-05 -1.1622695051954015e-05 -1.1944538462104155e-05 -1.2283788177568048e-05 -1.2641475093251269e-05 -1.3018708940084573e-05 -1.3416685225245019e-05 -1.3836692810963117e-05 -1.4280122239277213e-05 -1.4748474994059263e-05 -1.5243373834725037e-05 -1.5766574230572615e-05 -1.6319976953364883e-05 -1.6905642037186191e-05 -1.7525804383618496e-05 -1.8182891196588670e-05 -1.8879541367599902e-05 -1.9618627063208783e-05 -2.0403277940403454e-05 -2.1236908393276894e-05 -2.2123248107159751e-05 -2.3066376275201124e-05 -2.4070760118803785e-05 -2.5141298494979678e-05 -2.6283371258630428e-05 -2.7502895046990356e-05 -2.8806386501113783e-05 -3.0201034282086614e-05 -3.1694781239129180e-05 -3.3296418092324136e-05 -3.5015690485737369e-05 -3.6863421946363567e-05 -3.8851655526572929e-05 -4.0993816954083618e-05 -4.3304902805253852e-05 -4.5801698539735615e-05 -4.8503032257902885e-05 -5.1430070543216397e-05 -5.4606663758507629e-05 -5.8059750390287553e-05 -6.1819832770564109e-05 -6.5921538846557646e-05 -7.0404287191584139e-05 -7.5313076600679063e-05 -8.0699427595294141e-05 -8.6622509943496892e-05 -9.3150498137444489e-05 -1.0036220751265583e-04 -1.0834907812490519e-04 -1.1721759160109651e-04 -1.2709222978050054e-04 -1.3811911531495463e-04 -1.5047051521222443e-04 -1.6435044314768344e-04 -1.8000167084090965e-04 -1.9771455753056155e-04 -2.1783824113849585e-04 -2.4079492249335212e-04 -2.6709823165892334e-04 -2.9737702400068228e-04 -3.3240646458070251e-04 -3.7314898550829814e-04 -4.2080874352724753e-04 -4.7690472942626125e-04 -5.4336992171993294e-04 -6.2268720934629412e-04 -7.1807783335722753e-04 -8.3376574406788531e-04 -9.7535303395504655e-04 -1.1503598890986485e-03 -1.3690110929625748e-03 -1.6453959517279204e-03 -1.9991983524244674e-03 -2.4582994601539719e-03 -3.0627027067082653e-03 -3.8703789732420688e-03 -4.9655154317590966e-03 -6.4680355462360352e-03 -8.5348874880281367e-03 -1.1307724025449176e-02 -1.4623324536502212e-02 -1.6829321274720047e-02 -1.0707586339840716e-02 2.7882320422963066e-02 1.6056375662312816e-01 4.8357612847349812e-01 1.0000000000000000e+00 0.0000000000000000e+00 -6.2787690268594810e-06 -7.9225992358441539e-06 -8.3897276537821542e-06 -8.5188980840254230e-06 -8.5654231794192886e-06 -8.5968883011988440e-06 -8.6295056055523375e-06 -8.6669241192066183e-06 -8.7099683682266254e-06 -8.7588725346692820e-06 -8.8137604910624189e-06 -8.8747444370921590e-06 -8.9419448289771409e-06 -9.0154946275222945e-06 -9.0955405064152822e-06 -9.1822435000971943e-06 -9.2757795736850604e-06 -9.3763402260467337e-06 -9.4841331750642561e-06 -9.5993831459411901e-06 -9.7223327497341584e-06 -9.8532434262325662e-06 -9.9923964496927158e-06 -1.0140094031580055e-05 -1.0296660557964751e-05 -1.0462443964209889e-05 -1.0637817218723277e-05 -1.0823179902355992e-05 -1.1018959915060683e-05 -1.1225615360712505e-05 -1.1443636628673712e-05 -1.1673548649652028e-05 -1.1915913313658428e-05 -1.2171332091499878e-05 -1.2440448929675799e-05 -1.2723953449420520e-05 -1.3022584425961128e-05 -1.3337133533935306e-05 -1.3668449416364175e-05 -1.4017442175812087e-05 -1.4385088341169956e-05 -1.4772436298772471e-05 -1.5180612193591299e-05 -1.5610826392437511e-05 -1.6064380637530705e-05 -1.6542675954154563e-05 -1.7047221315716236e-05 -1.7579643127190360e-05 -1.8141695703407451e-05 -1.8735272932039825e-05 -1.9362421208617425e-05 -2.0025353688134589e-05 -2.0726466016521140e-05 -2.1468353839385477e-05 -2.2253832355656705e-05 -2.3085958075340698e-05 -2.3968052986929485e-05 -2.4903731536004921e-05 -2.5896930902553001e-05 -2.6951944955826017e-05 -2.8073462234242629e-05 -2.9266608531579193e-05 -3.0536994922841467e-05 -3.1890772045553025e-05 -3.3334691362525270e-05 -3.4876174353418479e-05 -3.6523391000267851e-05 -3.8285349106295660e-05 -4.0171995964878426e-05 -4.2194334176899785e-05 -4.4364554043810305e-05 -4.6696185435151367e-05 -4.9204272274280106e-05 -5.1905573328895818e-05 -5.4818793913365173e-05 -5.7964853968654325e-05 -6.1367198957895837e-05 -6.5052161629027883e-05 -6.9049384462941581e-05 -7.3392313983597346e-05 -7.8118780299195198e-05 -8.3271679362225407e-05 -8.8899779782752763e-05 -9.5058679478495533e-05 -1.0181194289357850e-04 -1.0923245880621095e-04 -1.1740406893824688e-04 -1.2642352814681357e-04 -1.3640287279664698e-04 -1.4747229623877898e-04 -1.5978365637492792e-04 -1.7351477340978914e-04 -1.8887472242475157e-04 -2.0611038629690602e-04 -2.2551461284152426e-04 -2.4743642643855799e-04 -2.7229388903730211e-04 -3.0059039949622331e-04 -3.3293548485307519e-04 -3.7007150320750548e-04 -4.1290818450111786e-04 -4.6256764045677105e-04 -5.2044346878252765e-04 -5.8827898478800637e-04 -6.6827161589597844e-04 -7.6321336807380809e-04 -8.7668140879974203e-04 -1.0132987647826061e-03 -1.1790936999855151e-03 -1.3819985436248788e-03 -1.6325457622038005e-03 -1.9448418092160612e-03 -2.3379267385632936e-03 -2.8376520971268083e-03 -3.4792018364191357e-03 -4.3102387195227904e-03 -5.3940183000484657e-03 -6.8093097591557777e-03 -8.6343227106993603e-03 -1.0864996502524992e-02 -1.3083077831367137e-02 -1.3242213430238566e-02 -3.7287820165147977e-03 3.9104239222933219e-02 1.7304296638269265e-01 4.8830105542525182e-01 1.0000000000000000e+00 0.0000000000000000e+00 -7.6317600331341917e-06 -9.6187706109418693e-06 -1.0182226355962262e-05 -1.0337877650939179e-05 -1.0394039629849502e-05 -1.0432145674396590e-05 -1.0471686550059691e-05 -1.0517039916767670e-05 -1.0569195120632254e-05 -1.0628435664502891e-05 -1.0694913351374771e-05 -1.0768765702360931e-05 -1.0850139666849966e-05 -1.0939196800206107e-05 -1.1036114848340376e-05 -1.1141088637375958e-05 -1.1254330840943792e-05 -1.1376072769186067e-05 -1.1506565239075678e-05 -1.1646079542998302e-05 -1.1794908500988483e-05 -1.1953367584394845e-05 -1.2121796131635631e-05 -1.2300558698937770e-05 -1.2490046569394800e-05 -1.2690679402355029e-05 -1.2902906994290628e-05 -1.3127211160110552e-05 -1.3364107787355751e-05 -1.3614149110353224e-05 -1.3877926204664381e-05 -1.4156071677373165e-05 -1.4449262563285169e-05 -1.4758223488205871e-05 -1.5083730157920704e-05 -1.5426613177528071e-05 -1.5787762178832566e-05 -1.6168130282593753e-05 -1.6568738989842672e-05 -1.6990683590532648e-05 -1.7435139105727058e-05 -1.7903366748453385e-05 -1.8396720955854747e-05 -1.8916657126311187e-05 -1.9464740178451153e-05 -2.0042653966635523e-05 -2.0652211580069272e-05 -2.1295366656938818e-05 -2.1974225922766646e-05 -2.2691063103769399e-05 -2.3448334276407407e-05 -2.4248694766264670e-05 -2.5095017867457259e-05 -2.5990415706598925e-05 -2.6938262472482014e-05 -2.7942220188388821e-05 -2.9006267360443575e-05 -3.0134731008586135e-05 -3.1332322554707415e-05 -3.2604177941458282e-05 -3.3955902480924277e-05 -3.5393621224127300e-05 -3.6924035748948900e-05 -3.8554488161411451e-05 -4.0293033188592020e-05 -4.2148519637091511e-05 -4.4130682790628053e-05 -4.6250249322209843e-05 -4.8519056447446104e-05 -5.0950187638902908e-05 -5.3558127769836138e-05 -5.6358940703886544e-05 -5.9370472726200763e-05 -6.2612586336602402e-05 -6.6107430016367914e-05 -6.9879749960960520e-05 -7.3957250558582126e-05 -7.8371012704407715e-05 -8.3155981540921443e-05 -8.8351536420057267e-05 -9.4002157623565728e-05 -1.0015820890233576e-04 -1.0687686027637593e-04 -1.1422317946722948e-04 -1.2227142571803347e-04 -1.3110658948849854e-04 -1.4082623265670796e-04 -1.5154269517287969e-04 -1.6338575070924381e-04 -1.7650581706508075e-04 -1.9107785362049758e-04 -2.0730611217189223e-04 -2.2542995531373393e-04 -2.4573101668285400e-04 -2.6854205391728625e-04 -2.9425795026524445e-04 -3.2334945918045257e-04 -3.5638046670894905e-04 -3.9402979204874046e-04 -4.3711887708649052e-04 -4.8664715707761198e-04 -5.4383750611063618e-04 -6.1019496799126689e-04 -6.8758308741179749e-04 -7.7832365606512023e-04 -8.8532770828520673e-04 -1.0122682809488072e-03 -1.1638089382247294e-03 -1.3459063952241234e-03 -1.5662105054355610e-03 -1.8345894170145099e-03 -2.1638090376900850e-03 -2.5703871168901798e-03 -3.0756066000290445e-03 -3.7065695155440561e-03 -4.4968911969799300e-03 -5.4858290275196630e-03 -6.7120573927987601e-03 -8.1890576340839447e-03 -9.8143012386933647e-03 -1.1036694557961062e-02 -9.6830455579941035e-03 1.7964015176943991e-03 4.6232881180129352e-02 1.7906693346297911e-01 4.8902504594456020e-01 1.0000000000000000e+00 0.0000000000000000e+00 -8.9797722882491304e-06 -1.1308908923505233e-05 -1.1968433717154737e-05 -1.2150457805010041e-05 -1.2216163268007053e-05 -1.2260816411320065e-05 -1.2307185923923093e-05 -1.2360375389878113e-05 -1.2421535267247955e-05 -1.2490995249632299e-05 -1.2568932872319408e-05 -1.2655509505916151e-05 -1.2750897558008386e-05 -1.2855286360393080e-05 -1.2968883990557883e-05 -1.3091918323025378e-05 -1.3224637951607447e-05 -1.3367313141425854e-05 -1.3520236867807623e-05 -1.3683725950858500e-05 -1.3858122273089052e-05 -1.4043794084872037e-05 -1.4241137434451248e-05 -1.4450577761997277e-05 -1.4672571660783090e-05 -1.4907608775388405e-05 -1.5156213821953072e-05 -1.5418948766367866e-05 -1.5696415222469943e-05 -1.5989257101419817e-05 -1.6298163495557332e-05 -1.6623871781570256e-05 -1.6967170978629101e-05 -1.7328905430534351e-05 -1.7709978849560881e-05 -1.8111358710173740e-05 -1.8534080992290771e-05 -1.8979255343965633e-05 -1.9448070769934489e-05 -1.9941801901738345e-05 -2.0461815838245755e-05 -2.1009579567783436e-05 -2.1586668078833933e-05 -2.2194773308501318e-05 -2.2835714013327258e-05 -2.3511446584720598e-05 -2.4224076886713078e-05 -2.4975873305315681e-05 -2.5769281208201219e-05 -2.6606938918409888e-05 -2.7491695282422841e-05 -2.8426629045667723e-05 -2.9415070373333492e-05 -3.0460624806461435e-05 -3.1567199837598940e-05 -3.2739034359987735e-05 -3.3980731451210036e-05 -3.5297295026054305e-05 -3.6694170787440998e-05 -3.8177291908435490e-05 -3.9753130134136537e-05 -4.1428753212658704e-05 -4.3211889515478355e-05 -4.5111000661966354e-05 -4.7135363261242052e-05 -4.9295161298435100e-05 -5.1601590793484714e-05 -5.4066978339187489e-05 -5.6704915524949686e-05 -5.9530411959384406e-05 -6.2560069978355397e-05 -6.5812284208567880e-05 -6.9307469738641680e-05 -7.3068323879146618e-05 -7.7120127551573206e-05 -8.1491092920409129e-05 -8.6212764831458536e-05 -9.1320485581206795e-05 -9.6853934929823043e-05 -1.0285775937428414e-04 -1.0938230699339313e-04 -1.1648448771751368e-04 -1.2422878375118558e-04 -1.3268844031194823e-04 -1.4194687300086395e-04 -1.5209933632081817e-04 -1.6325490860133175e-04 -1.7553886157718174e-04 -1.8909549912410326e-04 -2.0409157056311785e-04 -2.2072039012491158e-04 -2.3920682781110637e-04 -2.5981338053304368e-04 -2.8284758715526443e-04 -3.0867112181902367e-04 -3.3771099330768455e-04 -3.7047339709661065e-04 -4.0756092046387836e-04 -4.4969400428315249e-04 -4.9773782628789417e-04 -5.5273610817187431e-04 -6.1595378940017818e-04 -6.8893106960723615e-04 -7.7355202551029174e-04 -8.7213187855520434e-04 -9.8752800432954984e-04 -1.1232808700228317e-03 -1.2837920547990468e-03 -1.4745468449233407e-03 -1.7023875548192843e-03 -1.9758385213707089e-03 -2.3054703251635085e-03 -2.7042607624873549e-03 -3.1878466737514737e-03 -3.7744285128768918e-03 -4.4837995604279767e-03 -5.3342391779627862e-03 -6.3337333041747993e-03 -7.4536223331575658e-03 -8.5401706981185297e-03 -8.9970084924427193e-03 -6.6601678155585597e-03 5.8256818208565339e-03 5.0640742655524811e-02 1.8200844762378718e-01 4.8867592328872100e-01 1.0000000000000000e+00 0.0000000000000000e+00 -1.0321907595807003e-05 -1.2991747624958932e-05 -1.3746965047013046e-05 -1.3955240975501138e-05 -1.4030407644131215e-05 -1.4081519950016012e-05 -1.4134618863430276e-05 -1.4195533369637504e-05 -1.4265574034239213e-05 -1.4345115291349798e-05 -1.4434358980781312e-05 -1.4533489095474780e-05 -1.4642702463567805e-05 -1.4762215270848688e-05 -1.4892265042817303e-05 -1.5033111800970723e-05 -1.5185039104310952e-05 -1.5348355142174122e-05 -1.5523393924892878e-05 -1.5710516571373066e-05 -1.5910112685966859e-05 -1.6122601845192961e-05 -1.6348435238082151e-05 -1.6588097487129668e-05 -1.6842108635069509e-05 -1.7111026269011501e-05 -1.7395447791264316e-05 -1.7696012893887087e-05 -1.8013406292941577e-05 -1.8348360729640150e-05 -1.8701660213962018e-05 -1.9074143516225292e-05 -1.9466707966167183e-05 -1.9880313623188549e-05 -2.0315987831834064e-05 -2.0774830149404200e-05 -2.1258017679805894e-05 -2.1766810913479968e-05 -2.2302560165768942e-05 -2.2866712631451531e-05 -2.3460820042964793e-05 -2.4086546992736980e-05 -2.4745680067224141e-05 -2.5440137925357320e-05 -2.6171982369454450e-05 -2.6943430446914660e-05 -2.7756867723427365e-05 -2.8614862942874236e-05 -2.9520184231640867e-05 -3.0475816926283912e-05 -3.1484983170134727e-05 -3.2551163582824966e-05 -3.3678121343289365e-05 -3.4869928914444742e-05 -3.6130997606541051e-05 -3.7466110349298211e-05 -3.8880458210470347e-05 -4.0379681155150263e-05 -4.1969913454020090e-05 -4.3657834300984369e-05 -4.5450724481215552e-05 -4.7356529996815171e-05 -4.9383933453324509e-05 -5.1542434141260087e-05 -5.3842438161109795e-05 -5.6295360201831675e-05 -5.8913738563523737e-05 -6.1711365180471819e-05 -6.4703432963707116e-05 -6.7906703288249777e-05 -7.1339696674152330e-05 -7.5022910130750984e-05 -7.8979065467853229e-05 -8.3233393661035797e-05 -8.7813961077359604e-05 -9.2752044629557979e-05 -9.8082564497393152e-05 -1.0384458419560321e-04 -1.1008188928542577e-04 -1.1684365911778694e-04 -1.2418524940113773e-04 -1.3216910577117121e-04 -1.4086583216249224e-04 -1.5035544440029943e-04 -1.6072884630152483e-04 -1.7208957181370291e-04 -1.8455584650951297e-04 -1.9826303569450631e-04 -2.1336656092477930e-04 -2.3004538422982960e-04 -2.4850618430276810e-04 -2.6898837931741809e-04 -2.9177018682461731e-04 -3.1717595836746232e-04 -3.4558508660569200e-04 -3.7744285589371459e-04 -4.1327369989969335e-04 -4.5369744727235704e-04 -4.9944928018070503e-04 -5.5140430678193343e-04 -6.1060786380365663e-04 -6.7831291663561825e-04 -7.5602620434285994e-04 -8.4556506842695263e-04 -9.4912714846862923e-04 -1.0693752147729308e-03 -1.2095391286560805e-03 -1.3735358563135465e-03 -1.5661058728383285e-03 -1.7929588414087848e-03 -2.0609107740755706e-03 -2.3779749403263113e-03 -2.7533326709728873e-03 -3.1970459338238749e-03 -3.7192575530548390e-03 -4.3283947222846723e-03 -5.0273160748794321e-03 -5.8044199223177290e-03 -6.6090818640138198e-03 -7.2695136048786108e-03 -7.1910385485296846e-03 -4.2664803458466061e-03 8.6743388028853296e-03 5.3385174224141269e-02 1.8349723123610731e-01 4.8813156554536019e-01 1.0000000000000000e+00 0.0000000000000000e+00 -1.1657344909272306e-05 -1.4666198852635318e-05 -1.5516639126638171e-05 -1.5751020966172387e-05 -1.5835562684335412e-05 -1.5893044189838778e-05 -1.5952767026254349e-05 -1.6021284274499700e-05 -1.6100066338040308e-05 -1.6189531755725675e-05 -1.6289905773096859e-05 -1.6401394033466420e-05 -1.6524216819582274e-05 -1.6658616212616356e-05 -1.6804858206705872e-05 -1.6963233941516875e-05 -1.7134060842765026e-05 -1.7317683840357635e-05 -1.7514476696337903e-05 -1.7724843433292814e-05 -1.7949219863270389e-05 -1.8188075250051917e-05 -1.8441914147075323e-05 -1.8711278421917199e-05 -1.8996749443388610e-05 -1.9298950417228758e-05 -1.9618548905705578e-05 -1.9956259595383364e-05 -2.0312847348448333e-05 -2.0689130522544177e-05 -2.1085984541655415e-05 -2.1504345752704251e-05 -2.1945215641843839e-05 -2.2409665457162626e-05 -2.2898841232558592e-05 -2.3413969213868536e-05 -2.3956361756716426e-05 -2.4527423804968320e-05 -2.5128660009988740e-05 -2.5761682484147538e-05 -2.6428219204505637e-05 -2.7130123180793429e-05 -2.7869382545701032e-05 -2.8648131659713562e-05 -2.9468663258251076e-05 -3.0333441724322704e-05 -3.1245117681139054e-05 -3.2206544107698204e-05 -3.3220794087612381e-05 -3.4291180286585547e-05 -3.5421276391430012e-05 -3.6614940859744306e-05 -3.7876343268921461e-05 -3.9209993449945623e-05 -4.0620773675630418e-05 -4.2113974381527152e-05 -4.3695333956156227e-05 -4.5371083028769945e-05 -4.7147993707433655e-05 -4.9033434478965165e-05 -5.1035431665825997e-05 -5.3162738260972487e-05 -5.5424910947468238e-05 -5.7832396433454191e-05 -6.0396628592786434e-05 -6.3130137940683195e-05 -6.6046674997459386e-05 -6.9161349543787412e-05 -7.2490788332020884e-05 -7.6053313978793159e-05 -7.9869147935773376e-05 -8.3960641289629854e-05 -8.8352538156677787e-05 -9.3072276756353003e-05 -9.8150333618931120e-05 -1.0362061804240260e-04 -1.0952092594354625e-04 -1.1589346306731367e-04 -1.2278544841772730e-04 -1.3024981190246356e-04 -1.3834600399500286e-04 -1.4714093739579467e-04 -1.5671008358229555e-04 -1.6713875336767824e-04 -1.7852359721717256e-04 -1.9097436652793084e-04 -2.0461598577237975e-04 -2.1959099796025998e-04 -2.3606245813119199e-04 -2.5421736436062728e-04 -2.7427073733491330e-04 -2.9647048382911638e-04 -3.211