<?xml version='1.0' encoding='utf-8'?>
<VTKFile type="UnstructuredGrid" version="0.1" byte_order="LittleEndian">
  <UnstructuredGrid>
    <Piece NumberOfPoints="16384" NumberOfCells="16129">
      <PointData>
        <DataArray type="Float64" Name="velocity_u" NumberOfComponents="1">0.0000000000000000e+00 0.0000000000000000e+00 0.0000000000000000e+00 0.0000000000000000e+00 0.0000000000000000e+00 0.0000000000000000e+00 0.0000000000000000e+00 0.0000000000000000e+00 0.0000000000000000e+00 0.0000000000000000e+00 0.0000000000000000e+00 0.0000000000000000e+00 0.0000000000000000e+00 0.0000000000000000e+00 0.0000000000000000e+00 0.0000000000000000e+00 0.0000000000000000e+00 0.0000000000000000e+00 0.0000000000000000e+00 0.0000000000000000e+00 0.0000000000000000e+00 0.0000000000000000e+00 0.0000000000000000e+00 0.0000000000000000e+00 0.0000000000000000e+00 0.0000000000000000e+00 0.0000000000000000e+00 0.0000000000000000e+00 0.0000000000000000e+00 0.0000000000000000e+00 0.0000000000000000e+00 0.0000000000000000e+00 0.0000000000000000e+00 0.0000000000000000e+00 0.0000000000000000e+00 0.0000000000000000e+00 0.0000000000000000e+00 0.0000000000000000e+00 0.0000000000000000e+00 0.0000000000000000e+00 0.0000000000000000e+00 0.0000000000000000e+00 0.0000000000000000e+00 0.0000000000000000e+00 0.0000000000000000e+00 0.0000000000000000e+00 0.0000000000000000e+00 0.0000000000000000e+00 0.0000000000000000e+00 0.0000000000000000e+00 0.0000000000000000e+00 0.0000000000000000e+00 0.0000000000000000e+00 0.0000000000000000e+00 0.0000000000000000e+00 0.0000000000000000e+00 0.0000000000000000e+00 0.0000000000000000e+00 0.0000000000000000e+00 0.0000000000000000e+00 0.0000000000000000e+00 0.0000000000000000e+00 0.0000000000000000e+00 0.0000000000000000e+00 0.0000000000000000e+00 0.0000000000000000e+00 0.0000000000000000e+00 0.0000000000000000e+00 0.0000000000000000e+00 0.0000000000000000e+00 0.0000000000000000e+00 0.0000000000000000e+00 0.0000000000000000e+00 0.0000000000000000e+00 0.0000000000000000e+00 0.0000000000000000e+00 0.0000000000000000e+00 0.0000000000000000e+00 0.0000000000000000e+00 0.0000000000000000e+00 0.0000000000000000e+00 0.0000000000000000e+00 0.0000000000000000e+00 0.0000000000000000e+00 0.0000000000000000e+00 0.0000000000000000e+00 0.0000000000000000e+00 0.0000000000000000e+00 0.0000000000000000e+00 0.0000000000000000e+00 0.0000000000000000e+00 0.0000000000000000e+00 0.0000000000000000e+00 0.0000000000000000e+00 0.0000000000000000e+00 0.0000000000000000e+00 0.0000000000000000e+00 0.0000000000000000e+00 0.0000000000000000e+00 0.0000000000000000e+00 0.0000000000000000e+00 0.0000000000000000e+00 0.0000000000000000e+00 0.0000000000000000e+00 0.0000000000000000e+00 0.0000000000000000e+00 0.0000000000000000e+00 0.0000000000000000e+00 0.0000000000000000e+00 0.0000000000000000e+00 0.0000000000000000e+00 0.0000000000000000e+00 0.0000000000000000e+00 0.0000000000000000e+00 0.0000000000000000e+00 0.0000000000000000e+00 0.0000000000000000e+00 0.0000000000000000e+00 0.0000000000000000e+00 0.0000000000000000e+00 0.0000000000000000e+00 0.0000000000000000e+00 0.0000000000000000e+00 0.0000000000000000e+00 0.0000000000000000e+00 0.0000000000000000e+00 0.0000000000000000e+00 1.0000000000000000e+00 0.0000000000000000e+00 -1.1088674315455544e-06 -1.5723813098599123e-06 -1.7369304342094697e-06 -1.7877639238281409e-06 -1.8036789708688690e-06 -1.8111656322877839e-06 -1.8177465150779461e-06 -1.8252419324173140e-06 -1.8340074928264105e-06 -1.8440868470767650e-06 -1.8554797029129072e-06 -1.8681913006312864e-06 -1.8822366331795487e-06 -1.8976381294669860e-06 -1.9144236808420403e-06 -1.9326255725060373e-06 -1.9522800054639510e-06 -1.9734269291776785e-06 -1.9961100175989722e-06 -2.0203767155702028e-06 -2.0462783467397624e-06 -2.0738702911827258e-06 -2.1032122184372580e-06 -2.1343683392893730e-06 -2.1674076526301476e-06 -2.2024042026343278e-06 -2.2394373819303866e-06 -2.2785922931277626e-06 -2.3199601428292599e-06 -2.3636386395827216e-06 -2.4097324077378571e-06 -2.4583534617985756e-06 -2.5096217653286104e-06 -2.5636658449972838e-06 -2.6206234149583576e-06 -2.6806420157130673e-06 -2.7438797284444418e-06 -2.8105060149682193e-06 -2.8807026650041670e-06 -2.9546647949150093e-06 -3.0326018893335094e-06 -3.1147389481216833e-06 -3.2013177982349895e-06 -3.2925985565380267e-06 -3.3888611931241475e-06 -3.4904072075193426e-06 -3.5975615079364660e-06 -3.7106745588886694e-06 -3.8301247610317082e-06 -3.9563210011243910e-06 -4.0897054153503691e-06 -4.2307565070018492e-06 -4.3799927050401304e-06 -4.5379763215025188e-06 -4.7053178644269081e-06 -4.8826808072840798e-06 -5.0707869936595612e-06 -5.2704227488593220e-06 -5.4824456614624391e-06 -5.7077920960246698e-06 -5.9474856827605439e-06 -6.2026470147919794e-06 -6.4745045963304722e-06 -6.7644070654033669e-06 -7.0738369621230493e-06 -7.4044264792299548e-06 -7.7579754832185025e-06 -8.1364719480536962e-06 -8.5421151537481708e-06 -8.9773423184571589e-06 -9.4448593034774219e-06 -9.9476758437517394e-06 -1.0489145962641808e-05 -1.1073014719926677e-05 -1.1703472588673813e-05 -1.2385218626601299e-05 -1.3123533922317826e-05 -1.3924367506176957e-05 -1.4794437212291210e-05 -1.5741348079591430e-05 -1.6773731902475943e-05 -1.7901413064795347e-05 -1.9135606204981465e-05 -2.0489151381640025e-05 -2.1976794905934368e-05 -2.3615528038373741e-05 -2.5424997740315188e-05 -2.7428004891939022e-05 -2.9651110868646540e-05 -3.2125382100227145e-05 -3.4887309402951203e-05 -3.7979947429029846e-05 -4.1454335673615016e-05 -4.5371283818635304e-05 -4.9803628930881703e-05 -5.4839108412461755e-05 -6.0584046289730121e-05 -6.7168121807497470e-05 -7.4750589785746907e-05 -8.3528470974767585e-05 -9.3747445200444973e-05 -1.0571649303763356e-04 -1.1982780346152945e-04 -1.3658418271963958e-04 -1.5663730429803878e-04 -1.8084187989298248e-04 -2.1033363054521724e-04 -2.4664352968566643e-04 -2.9186851944575559e-04 -3.4893228059529769e-04 -4.2199348241724890e-04 -5.1710286742799681e-04 -6.4329425805568661e-04 -8.1445923359068815e-04 -1.0526859870625817e-03 -1.3944048813975640e-03 -1.9019339277786089e-03 -2.6849566055202390e-03 -3.9375022211880365e-03 -5.9865448889125806e-03 -9.2903282090426413e-03 -1.4094935676418134e-02 -1.8701893726313951e-02 -1.2904126766137013e-02 4.5188586125712263e-02 3.0001235049737385e-01 1.0000000000000000e+00 0.0000000000000000e+00 -2.6799716100053777e-06 -3.6836524058482790e-06 -4.0452910194873935e-06 -4.1625372416879740e-06 -4.2019197549180777e-06 -4.2210802633381104e-06 -4.2373153733403123e-06 -4.2552163421605252e-06 -4.2758609934837586e-06 -4.2994729622331594e-06 -4.3261043550277291e-06 -4.3557894955116862e-06 -4.3885727296792902e-06 -4.4245105120619187e-06 -4.4636698377769883e-06 -4.5061269868741416e-06 -4.5519669023378884e-06 -4.6012829866049020e-06 -4.6541771382624812e-06 -4.7107599489673767e-06 -4.7711510364413948e-06 -4.8354794894593402e-06 -4.9038843807810798e-06 -4.9765153090907359e-06 -5.0535329707553670e-06 -5.1351097983958587e-06 -5.2214306960899041e-06 -5.3126938612339738e-06 -5.4091116617628407e-06 -5.5109115642162239e-06 -5.6183371501401487e-06 -5.7316492589323851e-06 -5.8511272498786169e-06 -5.9770703453596360e-06 -6.1097990493559916e-06 -6.2496566982421785e-06 -6.3970112126175145e-06 -6.5522570579141818e-06 -6.7158173642194290e-06 -6.8881461816820808e-06 -7.0697309297930982e-06 -7.2610951302805472e-06 -7.4628014533030269e-06 -7.6754550436343617e-06 -7.8997071255500347e-06 -8.1362589741650833e-06 -8.3858663573919055e-06 -8.6493444671668282e-06 -8.9275733025728456e-06 -9.2215035469397073e-06 -9.5321631047360140e-06 -9.8606644563573252e-06 -1.0208212860264520e-05 -1.0576115384628774e-05 -1.0965790883473101e-05 -1.1378781168801555e-05 -1.1816763580202170e-05 -1.2281565022312508e-05 -1.2775177584964382e-05 -1.3299776066640141e-05 -1.3857737796751292e-05 -1.4451665004795587e-05 -1.5084409918047748e-05 -1.5759103003890030e-05 -1.6479185038276615e-05 -1.7248443636852740e-05 -1.8071054726886536e-05 -1.8951629617004839e-05 -1.9895268748746115e-05 -2.0907623366873831e-05 -2.1994966216591911e-05 -2.3164272577185084e-05 -2.4423313615136935e-05 -2.5780764500278557e-05 -2.7246329701460296e-05 -2.8830888178105465e-05 -3.0546662346765435e-05 -3.2407415880411695e-05 -3.4428685798721464e-05 -3.6628054868728304e-05 -3.9025472379680795e-05 -4.1643634232556692e-05 -4.4508435355066018e-05 -4.7649509189846907e-05 -5.1100872734463015e-05 -5.4901701836757244e-05 -5.9097268191294510e-05 -6.3740076454963233e-05 -6.8891249970086786e-05 -7.4622228346449935e-05 -8.1016858598901380e-05 -8.8173985106494788e-05 -9.6210676462554973e-05 -1.0526627131992550e-04 -1.1550748398816159e-04 -1.2713489272379714e-04 -1.4039124761250745e-04 -1.5557219140958453e-04 -1.7304021024841388e-04 -1.9324295308988616e-04 -2.1673751947207652e-04 -2.4422299144151411e-04 -2.7658449590071510e-04 -3.1495360121611290e-04 -3.6079217661008709e-04 -4.1601047406477211e-04 -4.8313595284063033e-04 -5.6555870014432866e-04 -6.6789477067921916e-04 -7.9653499901636464e-04 -9.6049246959599628e-04 -1.1727433044110790e-03 -1.4524044346764845e-03 -1.8283691689470432e-03 -2.3455354605085030e-03 -3.0756688952844218e-03 -4.1362755836315997e-03 -5.7215549379962503e-03 -8.1433798937926155e-03 -1.1842372794594012e-02 -1.7176999220813800e-02 -2.3303646454493440e-02 -2.4102711343620922e-02 3.8366367341000386e-03 1.2744127197982519e-01 4.6404415469104676e-01 1.0000000000000000e+00 0.0000000000000000e+00 -4.4122115482816078e-06 -5.9875383581529202e-06 -6.5522502966548751e-06 -6.7379824969672326e-06 -6.8024418289225459e-06 -6.8346513127517167e-06 -6.8617324032233649e-06 -6.8911537830423363e-06 -6.9248089281875038e-06 -6.9631605907127275e-06 -7.0063461007959807e-06 -7.0544466480040687e-06 -7.1075461679716963e-06 -7.1657418663076329e-06 -7.2291450406046933e-06 -7.2978805812156857e-06 -7.3720866599857389e-06 -7.4519147280856764e-06 -7.5375297530370019e-06 -7.6291106503024253e-06 -7.7268508837533421e-06 -7.8309591948698004e-06 -7.9416604104019687e-06 -8.0591963049476952e-06 -8.1838265420725368e-06 -8.3158297367885889e-06 -8.4555046544134570e-06 -8.6031715209584441e-06 -8.7591734214822700e-06 -8.9238778052253269e-06 -9.0976781459372419e-06 -9.2809957824995782e-06 -9.4742819184353291e-06 -9.6780197576903580e-06 -9.8927268095851332e-06 -1.0118957440888379e-05 -1.0357305723768593e-05 -1.0608408557349372e-05 -1.0872949023554412e-05 -1.1151660007062833e-05 -1.1445328180310650e-05 -1.1754798435357919e-05 -1.2080978765706774e-05 -1.2424845581435384e-05 -1.2787449518752411e-05 -1.3169921873287131e-05 -1.3573481746015237e-05 -1.3999443905364540e-05 -1.4449227387461692e-05 -1.4924364983965024e-05 -1.5426513834416786e-05 -1.5957467251523283e-05 -1.6519167804459790e-05 -1.7113721753729913e-05 -1.7743415107269209e-05 -1.8410731615935967e-05 -1.9118372908070924e-05 -1.9869280918807028e-05 -2.0666662943069959e-05 -2.1514019819193654e-05 -2.2415177698559685e-05 -2.3374323736080566e-05 -2.4396046176218531e-05 -2.5485379640391149e-05 -2.6647856545042682e-05 -2.7889565448366861e-05 -2.9217217180521591e-05 -3.0638220046421941e-05 -3.2160765767771436e-05 -3.3793927849766725e-05 -3.5547774151175948e-05 -3.7433496045071039e-05 -3.9463557299730261e-05 -4.1651866158240507e-05 -4.4013974416676511e-05 -4.6567308245078499e-05 -4.9331436834694942e-05 -5.2328386141438944e-05 -5.5583006319383730e-05 -5.9123403362752341e-05 -6.2981447733943087e-05 -6.7193375468621260e-05 -7.1800501377087820e-05 -7.6850069228286363e-05 -8.2396268950334539e-05 -8.8501457292680622e-05 -9.5237629016244320e-05 -1.0268819962324418e-04 -1.1095017564177043e-04 -1.2013680800075233e-04 -1.3038085311003366e-04 -1.4183860417703794e-04 -1.5469490253345499e-04 -1.6916940364237310e-04 -1.8552446290606895e-04 -2.0407512764576813e-04 -2.2520188700452101e-04 -2.4936706387341834e-04 -2.7713605981902640e-04 -3.0920512517940141e-04 -3.4643798812098185e-04 -3.8991463973255447e-04 -4.4099698624739026e-04 -5.0141818268413030e-04 -5.7340564411430923e-04 -6.5985260903854588e-04 -7.6456072428704534e-04 -8.9258816246830545e-04 -1.0507572008528383e-03 -1.2484070756678416e-03 -1.4985312590972315e-03 -1.8195289403232688e-03 -2.2379560770123047e-03 -2.7929268632885733e-03 -3.5432482063361276e-03 -4.5789584154524469e-03 -6.0392140389363561e-03 -8.1358685363183830e-03 -1.1166254504033846e-02 -1.5433988006249216e-02 -2.0778113347742037e-02 -2.4787829068313942e-02 -1.7386827884273939e-02 3.1988765252324712e-02 1.9102653829925101e-01 5.3600187047142389e-01 1.0000000000000000e+00 0.0000000000000000e+00 -6.1895303072243093e-06 -8.3501164546585601e-06 -9.1194000162562151e-06 -9.3729211188094173e-06 -9.4621000499145509e-06 -9.5074261777423043e-06 -9.5456081221975206e-06 -9.5868605249123841e-06 -9.6338520964593444e-06 -9.6872813952807092e-06 -9.7473772133128807e-06 -9.8142740900140210e-06 -9.8881003276653404e-06 -9.9689971299891547e-06 -1.0057122337315383e-05 -1.0152651102700590e-05 -1.0255776162262807e-05 -1.0366708200403559e-05 -1.0485676387644223e-05 -1.0612929102195163e-05 -1.0748734820496944e-05 -1.0893383135800222e-05 -1.1047185866713821e-05 -1.1210478257696319e-05 -1.1383620311869198e-05 -1.1566998291738837e-05 -1.1761026381226830e-05 -1.1966148478199349e-05 -1.2182840113102586e-05 -1.2411610536771564e-05 -1.2653005028158691e-05 -1.2907607429812916e-05 -1.3176042885960168e-05 -1.3458980786008116e-05 -1.3757137977585472e-05 -1.4071282326191356e-05 -1.4402236641013956e-05 -1.4750882934331931e-05 -1.5118167013849902e-05 -1.5505103492568883e-05 -1.5912781330642702e-05 -1.6342369960655485e-05 -1.6795125985810378e-05 -1.7272400479149653e-05 -1.7775647006683878e-05 -1.8306430517101271e-05 -1.8866437161174436e-05 -1.9457485060928059e-05 -2.0081536138208258e-05 -2.0740709232123569e-05 -2.1437294718869828e-05 -2.2173770729562680e-05 -2.2952821048227948e-05 -2.3777354931789359e-05 -2.4650529228873591e-05 -2.5575773118471652e-05 -2.6556815685283611e-05 -2.7597716640960936e-05 -2.8702900726691096e-05 -2.9877196401954191e-05 -3.1125879308467657e-05 -3.2454721022455050e-05 -3.3870043916383441e-05 -3.5378783219015406e-05 -3.6988557329346159e-05 -3.8707747400624538e-05 -4.0545587551007392e-05 -4.2512267556838239e-05 -4.4619050079011726e-05 -4.6878404535163838e-05 -4.9304160225678429e-05 -5.1911682148765627e-05 -5.4718073473742668e-05 -5.7742409000611533e-05 -6.1006004914331628e-05 -6.4532731666542035e-05 -6.8349377971094790e-05 -7.2486074944164939e-05 -7.6976791741506073e-05 -8.1859917411519734e-05 -8.7178946317592793e-05 -9.2983286974223343e-05 -9.9329219423366491e-05 -1.0628103417926457e-04 -1.1391239300137635e-04 -1.2230795931066096e-04 -1.3156535902877103e-04 -1.4179755087674839e-04 -1.5313570491448474e-04 -1.6573271291373752e-04 -1.7976749082281178e-04 -1.9545028111626772e-04 -2.1302922182879757e-04 -2.3279853063390573e-04 -2.5510876441259440e-04 -2.8037976201738998e-04 -3.0911707958379114e-04 -3.4193300996387949e-04 -3.7957366605780729e-04 -4.2295415051571249e-04 -4.7320460826918141e-04 -5.3173106303000236e-04 -6.0029653265847055e-04 -6.8113025337565147e-04 -7.7707629391941401e-04 -8.9179799849009838e-04 -1.0300625084538563e-03 -1.1981415720506887e-03 -1.4043833605062782e-03 -1.6600389470566306e-03 -1.9804726289640168e-03 -2.3869568496484657e-03 -2.9093631503484202e-03 -3.5902216298366887e-03 -4.4908113600470546e-03 -5.6999727815407646e-03 -7.3453085213300235e-03 -9.6008522630313068e-03 -1.2662740074341459e-02 -1.6585694533153658e-02 -2.0631761822069598e-02 -2.1162145754619627e-02 -5.9837846031517150e-03 5.6910831332355576e-02 2.2821447031851413e-01 5.6308548530642710e-01 1.0000000000000000e+00 0.0000000000000000e+00 -7.9746423605906718e-06 -1.0725251118312869e-05 -1.1699771306435887e-05 -1.2020480434146012e-05 -1.2133829414190890e-05 -1.2191996222553948e-05 -1.2241185151571560e-05 -1.2294256411386931e-05 -1.2354598663154020e-05 -1.2423123311327013e-05 -1.2500143208241976e-05 -1.2585844840025206e-05 -1.2680401277809857e-05 -1.2783998397561202e-05 -1.2896841078140428e-05 -1.3019154979696298e-05 -1.3151187429876405e-05 -1.3293208208129478e-05 -1.3445510425190135e-05 -1.3608411556141850e-05 -1.3782254625895907e-05 -1.3967409517468198e-05 -1.4164274389004909e-05 -1.4373277226745549e-05 -1.4594877579267069e-05 -1.4829568489216020e-05 -1.5077878598115256e-05 -1.5340374401359232e-05 -1.5617662678148334e-05 -1.5910393158146764e-05 -1.6219261466003086e-05 -1.6545012334170301e-05 -1.6888443065276360e-05 -1.7250407277155309e-05 -1.7631819012178045e-05 -1.8033657271099578e-05 -1.8456970967504560e-05 -1.8902884286024051e-05 -1.9372602496886844e-05 -1.9867418346858228e-05 -2.0388719122631891e-05 -2.0937994403366036e-05 -2.1516844506787850e-05 -2.2126989721148168e-05 -2.2770280489842423e-05 -2.3448708676124761e-05 -2.4164419953347302e-05 -2.4919727390751256e-05 -2.5717126433978275e-05 -2.6559311542514423e-05 -2.7449194661847504e-05 -2.8389925629088662e-05 -2.9384914707484935e-05 -3.0437857625809583e-05 -3.1552763532770489e-05 -3.2733986162537305e-05 -3.3986258502824997e-05 -3.5314731464905201e-05 -3.6725017233173647e-05 -3.8223237921813432e-05 -3.9816080099029514e-05 -4.1510855952070094e-05 -4.3315572214323594e-05 -4.5239008079933903e-05 -4.7290803253277223e-05 -4.9481557476488091e-05 -5.1822943406188361e-05 -5.4327835081530093e-05 -5.7010454290478694e-05 -5.9886537448234058e-05 -6.2973526436019067e-05 -6.6290787637267328e-05 -6.9859863767759544e-05 -7.3704763705558236e-05 -7.7852297016647943e-05 -8.2332461598939042e-05 -8.7178894043420633e-05 -9.2429393659574697e-05 -9.8126533852515202e-05 -1.0431837829072229e-04 -1.1105932280219800e-04 -1.1841108755807860e-04 -1.2644388967461863e-04 -1.3523783441113721e-04 -1.4488457243856353e-04 -1.5548928118780687e-04 -1.6717304233726510e-04 -1.8007570659686397e-04 -1.9435936082314048e-04 -2.1021254259098919e-04 -2.2785538723938829e-04 -2.4754594451506425e-04 -2.6958796970777811e-04 -2.9434058490302665e-04 -3.2223032662758545e-04 -3.5376625605452636e-04 -3.8955902583800170e-04 -4.3034509491508648e-04 -4.7701768589282836e-04 -5.3066663836986777e-04 -5.9263009141185207e-04 -6.6456201575812012e-04 -7.4852115416990420e-04 -8.4708912013750821e-04 -9.6352853797772905e-04 -1.1019966268769124e-03 -1.2678361805558010e-03 -1.4679753944843868e-03 -1.7114817757485079e-03 -2.0103352027899700e-03 -2.3805131630008415e-03 -2.8435188349258760e-03 -3.4285275650561271e-03 -4.1753608739585777e-03 -5.1384412514346939e-03 -6.3914408569168430e-03 -8.0304392680776004e-03 -1.0166261550243333e-02 -1.2871623236034659e-02 -1.5967308161737619e-02 -1.8295071390588512e-02 -1.5559110681120739e-02 5.0352278930493339e-03 7.4396477949918147e-02 2.4705308965156911e-01 5.7101437961723778e-01 1.0000000000000000e+00 0.0000000000000000e+00 -9.7567573098949949e-06 -1.3097994865830569e-05 -1.4277884995964264e-05 -1.4665476667579322e-05 -1.4802632323411146e-05 -1.4873368057132275e-05 -1.4933383782745693e-05 -1.4998146455027999e-05 -1.5071731797155205e-05 -1.5155244523844213e-05 -1.5249071742052087e-05 -1.5353447424654188e-05 -1.5468587456215582e-05 -1.5594721447540980e-05 -1.5732100706579175e-05 -1.5881000825254347e-05 -1.6041723068165480e-05 -1.6214595539162558e-05 -1.6399974392232343e-05 -1.6598245169636477e-05 -1.6809824275762159e-05 -1.7035160574103600e-05 -1.7274737119910636e-05 -1.7529073072536135e-05 -1.7798725824010319e-05 -1.8084293338059574e-05 -1.8386416669391654e-05 -1.8705782663625385e-05 -1.9043126892614530e-05 -1.9399236891888625e-05 -1.9774955721269717e-05 -2.0171185826973743e-05 -2.0588893204496982e-05 -2.1029111924505042e-05 -2.1492949105816631e-05 -2.1981590371593058e-05 -2.2496305777699266e-05 -2.3038456233537713e-05 -2.3609500516309514e-05 -2.4211003003176632e-05 -2.4844642179118348e-05 -2.5512219921224202e-05 -2.6215671610536423e-05 -2.6957077227791653e-05 -2.7738673611106311e-05 -2.8562867971232023e-05 -2.9432252716736595e-05 -3.0349621733509220e-05 -3.1317988382027737e-05 -3.2340605460895496e-05 -3.3420987281930812e-05 -3.4562934014526792e-05 -3.5770558629015121e-05 -3.7048316889759775e-05 -3.8401040778917095e-05 -3.9833975648098461e-05 -4.1352821526722565e-05 -4.2963779256884282e-05 -4.4673602183295373e-05 -4.6489654027431756e-05 -4.8419973655207219e-05 -5.0473347788409450e-05 -5.2659392955201674e-05 -5.4988647939511638e-05 -5.7472678034466898e-05 -6.0124192844644180e-05 -6.2957179891764490e-05 -6.5987056455898892e-05 -6.9230842228081967e-05 -7.2707355981614554e-05 -7.6437440358972919e-05 -8.0444219451441967e-05 -8.4753394343481080e-05 -8.9393582873004409e-05 -9.4396711393477962e-05 -9.9798467752749642e-05 -1.0563882629225019e-04 -1.1196265796214581e-04 -1.1882044132732059e-04 -1.2626909321223636e-04 -1.3437294202023914e-04 -1.4320487244091139e-04 -1.5284767602490631e-04 -1.6339564883242522e-04 -1.7495648782324825e-04 -1.8765355124839448e-04 -2.0162856274921832e-04 -2.1704485715293308e-04 -2.3409129245018773e-04 -2.5298698560412730e-04 -2.7398706943352106e-04 -2.9738972097384796e-04 -3.2354478316718084e-04 -3.5286439232777274e-04 -3.8583614212892752e-04 -4.2303947415763400e-04 -4.6516619602639107e-04 -5.1304630764545140e-04 -5.6768069349507158e-04 -6.3028274888991104e-04 -7.0233169722816924e-04 -7.8564129283724676e-04 -8.8244888602243303e-04 -9.9553157506172482e-04 -1.1283585541140343e-03 -1.2852920082136938e-03 -1.4718532582219037e-03 -1.6950765903205624e-03 -1.9639804788660065e-03 -2.2901944622576624e-03 -2.6887883589340965e-03 -3.1793543902879635e-03 -3.7873798874047391e-03 -4.5458849200230595e-03 -5.4970865490059596e-03 -6.6931745454302223e-03 -8.1930748779356320e-03 -1.0044666335421195e-02 -1.2217158788452778e-02 -1.4369765330455178e-02 -1.5119396353564442e-02 -9.9552017056077097e-03 1.3756946197590584e-02 8.5381247388962925e-02 2.5575923486248114e-01 5.7189087341350497e-01 1.0000000000000000e+00 0.0000000000000000e+00 -1.1532611883074891e-05 -1.5463189073540879e-05 -1.6848123798398733e-05 -1.7302385163450973e-05 -1.7463126452139526e-05 -1.7546223834566256e-05 -1.7616884290554426e-05 -1.7693174022934024e-05 -1.7779842828151269e-05 -1.7878177744309126e-05 -1.7988632765398517e-05 -1.8111484883136081e-05 -1.8246990133542289e-05 -1.8395420167291767e-05 -1.8557071470077817e-05 -1.8732268463890007e-05 -1.8921365245537784e-05 -1.9124747061284916e-05 -1.9342831812090153e-05 -1.9576071674747829e-05 -1.9824954850657806e-05 -2.0090007447249437e-05 -2.0371795526611710e-05 -2.0670927370122071e-05 -2.0988055978916692e-05 -2.1323881788596634e-05 -2.1679155578450934e-05 -2.2054681607035027e-05 -2.2451321048289833e-05 -2.2869995782953129e-05 -2.3311692542049313e-05 -2.3777467381381935e-05 -2.4268450515082033e-05 -2.4785851591844328e-05 -2.5330965486373558e-05 -2.5905178620343170e-05 -2.6509975813956257e-05 -2.7146947734344874e-05 -2.7817799069616707e-05 -2.8524357528887284e-05 -2.9268583690379658e-05 -3.0052581715046378e-05 -3.0878611042273696e-05 -3.1749099264781071e-05 -3.2666656337568789e-05 -3.3634090189340266e-05 -3.4654423828549592e-05 -3.5730914166349700e-05 -3.6867072842416707e-05 -3.8066689262056879e-05 -3.9333855992909995e-05 -4.0672996783023376e-05 -4.2088897636843701e-05 -4.3586741399360726e-05 -4.5172146184008983e-05 -4.6851208004728780e-05 -4.8630548206515868e-05 -5.0517366460789690e-05 -5.2519500034958375e-05 -5.4645490008091743e-05 -5.6904655353834550e-05 -5.9307176147292688e-05 -6.1864187225815407e-05 -6.4587883590834692e-05 -6.7491639117903357e-05 -7.0590140686760256e-05 -7.3899540159927426e-05 -7.7437626723278347e-05 -8.1224022524971492e-05 -8.5280405398556410e-05 -8.9630763121353497e-05 -9.4301684055674590e-05 -9.9322689912859801e-05 -1.0472661790673296e-04 -1.1055006083521759e-04 -1.1683387462275603e-04 -1.2362376488709109e-04 -1.3097096726494154e-04 -1.3893303888417338e-04 -1.4757478063383755e-04 -1.5696931434124747e-04 -1.6719934577405764e-04 -1.7835865060291908e-04 -1.9055382661643629e-04 -2.0390636589282370e-04 -2.1855511504067241e-04 -2.3465920632663700e-04 -2.5240156037981625e-04 -2.7199308753775661e-04 -2.9367774746459835e-04 -3.1773866457525558e-04 -3.4450554813044505e-04 -3.7436373370289391e-04 -4.0776524568597242e-04 -4.4524238884154939e-04 -4.8742452123065144e-04 -5.3505884428561856e-04 -5.8903628440595531e-04 -6.5042385689996149e-04 -7.2050531228324503e-04 -8.0083239734996393e-04 -8.9328976047274881e-04 -1.0001774254306723e-03 -1.1243158962183776e-03 -1.2691803774011689e-03 -1.4390722926826188e-03 -1.6393381760028639e-03 -1.8766478123860529e-03 -2.1593444956631977e-03 -2.4978788651885365e-03 -2.9053306090454987e-03 -3.3980023291772660e-03 -3.9960220323742215e-03 -4.7237802394588845e-03 -5.6097621621379436e-03 -6.6846282747602959e-03 -7.9742649142315290e-03 -9.4775183862321408e-03 -1.1094856080573093e-02 -1.2399355101992665e-02 -1.1928965536850630e-02 -5.1946101078747748e-03 2.0049833774886418e-02 9.1948945131861720e-02 2.5951445986046551e-01 5.7070727521044662e-01 1.0000000000000000e+00 0.0000000000000000e+00 -1.3300764682637071e-05 -1.7818450615619940e-05 -1.9407758697388632e-05 -1.9928447964478486e-05 -2.0112609295056649e-05 -2.0207903796058310e-05 -2.0289038201026250e-05 -2.0376677597685019e-05 -2.0476242639056588e-05 -2.0589198049636599e-05 -2.0716060410201153e-05 -2.0857146373028600e-05 -2.1012749639927398e-05 -2.1183182010674006e-05 -2.1368783582984464e-05 -2.1569926171150409e-05 -2.1787015271375391e-05 -2.2020491773919885e-05 -2.2270833720511850e-05 -2.2538558179905420e-05 -2.2824223252908406e-05 -2.3128430227639578e-05 -2.3451825933797415e-05 -2.3795105339453067e-05 -2.4159014392439308e-05 -2.4544353081267217e-05 -2.4951978718996918e-05 -2.5382809510013572e-05 -2.5837828475680010e-05 -2.6318087768146362e-05 -2.6824713352464338e-05 -2.7358910052940634e-05 -2.7921967025357772e-05 -2.8515263746883546e-05 -2.9140276573609106e-05 -2.9798585868002222e-05 -3.0491883725516061e-05 -3.1221982407516507e-05 -3.1990823609916036e-05 -3.2800488630630096e-05 -3.3653209444196603e-05 -3.4551380748735852e-05 -3.5497573162223306e-05 -3.6494547767190520e-05 -3.7545272116836260e-05 -3.8652937768831428e-05 -3.9820979505986623e-05 -4.1053096522851081e-05 -4.2353275844522170e-05 -4.3725818150189407e-05 -4.5175366201364073e-05 -4.6706936249687542e-05 -4.8325952904646319e-05 -5.0038287858133452e-05 -5.1850302791995856e-05 -5.3768896952536927e-05 -5.5801560120328066e-05 -5.7956431746396845e-05 -6.0242366931186888e-05 -6.2669010033639019e-05 -6.5246877041393196e-05 -6.7987448037411477e-05 -7.0903271049551261e-05 -7.4008078672754997e-05 -7.7316919337572029e-05 -8.0846305553688164e-05 -8.4614381562088010e-05 -8.8641113014088912e-05 -9.2948502011037170e-05 -9.7560831667101690e-05 -1.0250494475717068e-04 -1.0781056145626397e-04 -1.1351064240761754e-04 -1.1964180494608947e-04 -1.2624480138317718e-04 -1.3336506929484407e-04 -1.4105336591543151e-04 -1.4936650181280033e-04 -1.5836819182006294e-04 -1.6813004392931318e-04 -1.7873271101509670e-04 -1.9026723619402195e-04 -2.0283662922740252e-04 -2.1655771856023901e-04 -2.3156333301061060e-04 -2.4800487964787680e-04 -2.6605539938258415e-04 -2.8591319983897116e-04 -3.0780618826122604e-04 -3.3199705625926894e-04 -3.5878950404997470e-04 -3.8853573767213813e-04 -4.2164553029616126e-04 -4.5859721017152568e-04 -4.9995102945119745e-04 -5.4636548435234354e-04 -5.9861730083590118e-04 -6.5762598263425609e-04 -7.2448404802146870e-04 -8.0049436159844933e-04 -8.8721631155558648e-04 -9.8652299394639533e-04 -1.1006720298662521e-03 -1.2323931394964121e-03 -1.3849960497110841e-03 -1.5625025538244558e-03 -1.7698062641874329e-03 -2.0128621722160294e-03 -2.2989044144745407e-03 -2.6366825570436655e-03 -3.0366904765661202e-03 -3.5113307458688740e-03 -4.0748983819038111e-03 -4.7431529428716597e-03 -5.5320023488563685e-03 -6.4541986095683502e-03 -7.5110445864832670e-03 -8.6696445333214033e-03 -9.7939551725083462e-03 -1.0425731183045250e-02 -9.1054253780258245e-03 -1.4529207759223003e-03 2.4408814532590757e-02 9.5829273841163840e-02 2.6102368507718460e-01 5.6922052537604140e-01 1.0000000000000000e+00 0.0000000000000000e+00 -1.5060129817911007e-05 -2.0162119182993848e-05 -2.1954878672788677e-05 -2.2541687513100039e-05 -2.2749107344741950e-05 -2.2856449212264994e-05 -2.2947891031056619e-05 -2.3046693415619696e-05 -2.3158947392716148e-05 -2.3286293897590035e-05 -2.3429309936185026e-05 -2.3588349584537762e-05 -2.3763742169236738e-05 -2.3955837814122810e-05 -2.4165018539387124e-05 -2.4391701905719847e-05 -2.4636343136137003e-05 -2.4899437016539540e-05 -2.5181519867861441e-05 -2.5483171645347509e-05 -2.5805018176653932e-05 -2.6147733573962777e-05 -2.6512042874829697e-05 -2.6898724943705579e-05 -2.7308615623229677e-05 -2.7742611119295298e-05 -2.8201671650785919e-05 -2.8686825439314563e-05 -2.9199173098718298e-05 -2.9739892425812629e-05 -3.0310243572180779e-05 -3.0911574625169946e-05 -3.1545327687177750e-05 -3.2213045536246274e-05 -3.2916378891541021e-05 -3.3657094288207823e-05 -3.4437082628271063e-05 -3.5258368539288070e-05 -3.6123120648553254e-05 -3.7033662803447586e-05 -3.7992486264166992e-05 -3.9002262995646308e-05 -4.0065860267572432e-05 -4.1186356727994029e-05 -4.2367060026973581e-05 -4.3611526091081106e-05 -4.4923580281399514e-05 -4.6307340731969375e-05 -4.7767244089546445e-05 -4.9308073822604560e-05 -5.0934991387144264e-05 -5.2653570705298543e-05 -5.4469836411339945e-05 -5.6390306204196595e-05 -5.8422037688079332e-05 -6.0572680326716758e-05 -6.2850533293838339e-05 -6.5264609931780420e-05 -6.7824709507923082e-05 -7.0541497222217353e-05 -7.3426593726558787e-05 -7.6492675449194229e-05 -7.9753586985352543e-05 -8.3224467136131848e-05 -8.6921890702134678e-05 -9.0864028377290876e-05 -9.5070827136286922e-05 -9.9564213942068906e-05 -1.0436832640628964e-04 -1.0950977461056365e-04 -1.1501793863693509e-04 -1.2092530713498186e-04 -1.2726786352181772e-04 -1.3408552755288748e-04 -1.4142266110064153e-04 -1.4932864866389292e-04 -1.5785856518306835e-04 -1.6707394577184219e-04 -1.7704367479644113e-04 -1.8784501570064032e-04 -1.9956480683928736e-04 -2.1230085257316654e-04 -2.2616354533867757e-04 -2.4127776293166820e-04 -2.5778509331798107e-04 -2.7584644890316903e-04 -2.9564514687199333e-04 -3.1739054955535296e-04 -3.4132237713255389e-04 -3.6771582944998354e-04 -3.9688768596536818e-04 -4.2920358945798835e-04 -4.65086