<?xml version='1.0' encoding='utf-8'?>
<VTKFile type="UnstructuredGrid" version="0.1" byte_order="LittleEndian">
  <UnstructuredGrid>
    <Piece NumberOfPoints="16384" NumberOfCells="16129">
      <PointData>
        <DataArray type="Float64" Name="velocity_u" NumberOfComponents="1">0.0000000000000000e+00 0.0000000000000000e+00 0.0000000000000000e+00 0.0000000000000000e+00 0.0000000000000000e+00 0.0000000000000000e+00 0.0000000000000000e+00 0.0000000000000000e+00 0.0000000000000000e+00 0.0000000000000000e+00 0.0000000000000000e+00 0.0000000000000000e+00 0.0000000000000000e+00 0.0000000000000000e+00 0.0000000000000000e+00 0.0000000000000000e+00 0.0000000000000000e+00 0.0000000000000000e+00 0.0000000000000000e+00 0.0000000000000000e+00 0.0000000000000000e+00 0.0000000000000000e+00 0.0000000000000000e+00 0.0000000000000000e+00 0.0000000000000000e+00 0.0000000000000000e+00 0.0000000000000000e+00 0.0000000000000000e+00 0.0000000000000000e+00 0.0000000000000000e+00 0.0000000000000000e+00 0.0000000000000000e+00 0.0000000000000000e+00 0.0000000000000000e+00 0.0000000000000000e+00 0.0000000000000000e+00 0.0000000000000000e+00 0.0000000000000000e+00 0.0000000000000000e+00 0.0000000000000000e+00 0.0000000000000000e+00 0.0000000000000000e+00 0.0000000000000000e+00 0.0000000000000000e+00 0.0000000000000000e+00 0.0000000000000000e+00 0.0000000000000000e+00 0.0000000000000000e+00 0.0000000000000000e+00 0.0000000000000000e+00 0.0000000000000000e+00 0.0000000000000000e+00 0.0000000000000000e+00 0.0000000000000000e+00 0.0000000000000000e+00 0.0000000000000000e+00 0.0000000000000000e+00 0.0000000000000000e+00 0.0000000000000000e+00 0.0000000000000000e+00 0.0000000000000000e+00 0.0000000000000000e+00 0.0000000000000000e+00 0.0000000000000000e+00 0.0000000000000000e+00 0.0000000000000000e+00 0.0000000000000000e+00 0.0000000000000000e+00 0.0000000000000000e+00 0.0000000000000000e+00 0.0000000000000000e+00 0.0000000000000000e+00 0.0000000000000000e+00 0.0000000000000000e+00 0.0000000000000000e+00 0.0000000000000000e+00 0.0000000000000000e+00 0.0000000000000000e+00 0.0000000000000000e+00 0.0000000000000000e+00 0.0000000000000000e+00 0.0000000000000000e+00 0.0000000000000000e+00 0.0000000000000000e+00 0.0000000000000000e+00 0.0000000000000000e+00 0.0000000000000000e+00 0.0000000000000000e+00 0.0000000000000000e+00 0.0000000000000000e+00 0.0000000000000000e+00 0.0000000000000000e+00 0.0000000000000000e+00 0.0000000000000000e+00 0.0000000000000000e+00 0.0000000000000000e+00 0.0000000000000000e+00 0.0000000000000000e+00 0.0000000000000000e+00 0.0000000000000000e+00 0.0000000000000000e+00 0.0000000000000000e+00 0.0000000000000000e+00 0.0000000000000000e+00 0.0000000000000000e+00 0.0000000000000000e+00 0.0000000000000000e+00 0.0000000000000000e+00 0.0000000000000000e+00 0.0000000000000000e+00 0.0000000000000000e+00 0.0000000000000000e+00 0.0000000000000000e+00 0.0000000000000000e+00 0.0000000000000000e+00 0.0000000000000000e+00 0.0000000000000000e+00 0.0000000000000000e+00 0.0000000000000000e+00 0.0000000000000000e+00 0.0000000000000000e+00 0.0000000000000000e+00 0.0000000000000000e+00 0.0000000000000000e+00 0.0000000000000000e+00 0.0000000000000000e+00 0.0000000000000000e+00 1.0000000000000000e+00 0.0000000000000000e+00 -1.0709729328289275e-06 -1.4793937412090872e-06 -1.6151548286702869e-06 -1.6548419235436592e-06 -1.6671755479187788e-06 -1.6735443609290223e-06 -1.6795946065485164e-06 -1.6865945978560086e-06 -1.6947713231060383e-06 -1.7041493590125951e-06 -1.7147304512355318e-06 -1.7265229806033069e-06 -1.7395432244759820e-06 -1.7538133365507448e-06 -1.7693599168983511e-06 -1.7862132934330524e-06 -1.8044072310191189e-06 -1.8239788556484985e-06 -1.8449686718640357e-06 -1.8674206270252091e-06 -1.8913822255914103e-06 -1.9169047041504169e-06 -1.9440432523486258e-06 -1.9728572456476876e-06 -2.0034104721352632e-06 -2.0357713722336934e-06 -2.0700133241831426e-06 -2.1062149816045578e-06 -2.1444606351639331e-06 -2.1848405744886171e-06 -2.2274514678641367e-06 -2.2723968038753819e-06 -2.3197874123215713e-06 -2.3697420310990987e-06 -2.4223878777492937e-06 -2.4778612362972802e-06 -2.5363081193148770e-06 -2.5978850470753938e-06 -2.6627599197040764e-06 -2.7311129317715750e-06 -2.8031375303675863e-06 -2.8790414790100374e-06 -2.9590480751791555e-06 -3.0433974976893803e-06 -3.1323482383099742e-06 -3.2261786412064000e-06 -3.3251886408767086e-06 -3.4297017500379129e-06 -3.5400672519940034e-06 -3.6566625418558519e-06 -3.7798956703496528e-06 -3.9102082241065589e-06 -4.0480786089787946e-06 -4.1940256870361366e-06 -4.3486127378283450e-06 -4.5124518542387138e-06 -4.6862089337468224e-06 -4.8706093088498111e-06 -5.0664439758131900e-06 -5.2745764986807277e-06 -5.4959508310114159e-06 -5.7316002516994710e-06 -5.9826574319453690e-06 -6.2503656643017075e-06 -6.5360915301322858e-06 -6.8413394026116768e-06 -7.1677680161517106e-06 -7.5172092267513360e-06 -7.8916893257532396e-06 -8.2934535404976911e-06 -8.7249942664935708e-06 -9.1890834049706432e-06 -9.6888094454531048e-06 -1.0227620414950145e-05 -1.0809373866094949e-05 -1.1438394863427821e-05 -1.2119543269103015e-05 -1.2858292460364257e-05 -1.3660821945340484e-05 -1.4534126185228440e-05 -1.5486142556324422e-05 -1.6525902964470263e-05 -1.7663714626546595e-05 -1.8911375720397732e-05 -2.0282433029457046e-05 -2.1792491917982491e-05 -2.3459591658948861e-05 -2.5304660990039037e-05 -2.7352073003529469e-05 -2.9630325670592622e-05 -3.2172881465626513e-05 -3.5019207841553746e-05 -3.8216074329970071e-05 -4.1819181205724220e-05 -4.5895217525464194e-05 -5.0524479274523910e-05 -5.5804226854904283e-05 -6.1853025823032249e-05 -6.8816405520606908e-05 -7.6874304911512010e-05 -8.6250968816168507e-05 -9.7228239659022592e-05 -1.1016361546985722e-04 -1.2551509156239052e-04 -1.4387579639896591e-04 -1.6602299627638893e-04 -1.9298855553995074e-04 -2.2616205263059614e-04 -2.6744466532134059e-04 -3.1948387741045052e-04 -3.8604028726832982e-04 -4.7257682321860602e-04 -5.8723498407282936e-04 -7.4250922659872473e-04 -9.5822785833246616e-04 -1.2670582994259026e-03 -1.7249672420166600e-03 -2.4311892864904436e-03 -3.5644939435316315e-03 -5.4374954294861121e-03 -8.5240561301918177e-03 -1.3201742105778388e-02 -1.8181188484961228e-02 -1.4032015539783020e-02 4.0669753450166657e-02 2.9367143700967763e-01 1.0000000000000000e+00 0.0000000000000000e+00 -2.5491147603063947e-06 -3.4275246825827504e-06 -3.7238672988162130e-06 -3.8147924540727799e-06 -3.8450448242072753e-06 -3.8609924605149953e-06 -3.8755853104930859e-06 -3.8920352753380876e-06 -3.9110499982817323e-06 -3.9327718290404535e-06 -3.9572407567871723e-06 -3.9844909145597655e-06 -4.0145660969525676e-06 -4.0475201847175396e-06 -4.0834158738504431e-06 -4.1223238348326149e-06 -4.1643223552288954e-06 -4.2094972752453520e-06 -4.2579420888014919e-06 -4.3097581639467742e-06 -4.3650550741800413e-06 -4.4239510224320138e-06 -4.4865733183195427e-06 -4.5530588766743373e-06 -4.6235547436677660e-06 -4.6982186865084980e-06 -4.7772198706084704e-06 -4.8607396103759117e-06 -4.9489721658060722e-06 -5.0421255871188617e-06 -5.1404226466825401e-06 -5.2441018898878590e-06 -5.3534187908586882e-06 -5.4686469752801141e-06 -5.5900795106805669e-06 -5.7180303229823751e-06 -5.8528358009463166e-06 -5.9948565881641309e-06 -6.1444795141343566e-06 -6.3021196494752420e-06 -6.4682225455923591e-06 -6.6432667371780213e-06 -6.8277665236122455e-06 -7.0222749956763877e-06 -7.2273873171607500e-06 -7.4437443524668400e-06 -7.6720367305808999e-06 -7.9130093475785112e-06 -8.1674662692851584e-06 -8.4362760853214426e-06 -8.7203778760298996e-06 -9.0207879282190507e-06 -9.3386072116507753e-06 -9.6750296033957995e-06 -1.0031350982710619e-05 -1.0408979429545667e-05 -1.0809446690051074e-05 -1.1234420959029870e-05 -1.1685721099545890e-05 -1.2165332614643261e-05 -1.2675425723843971e-05 -1.3218375742223161e-05 -1.3796785924544243e-05 -1.4413513180556266e-05 -1.5071697291204550e-05 -1.5774794176471034e-05 -1.6526613630537940e-05 -1.7331362146448396e-05 -1.8193691841193543e-05 -1.9118756584846564e-05 -2.0112276309822644e-05 -2.1180610698645557e-05 -2.2330844065438425e-05 -2.3570883632533409e-05 -2.4909573408678031e-05 -2.6356826191696515e-05 -2.7923777162390249e-05 -2.9622963466542762e-05 -3.1468534746509650e-05 -3.3476500447556689e-05 -3.5665021346421814e-05 -3.8054754653118843e-05 -4.0669263993420514e-05 -4.3535508179823867e-05 -4.6684426236154962e-05 -5.0151640528893185e-05 -5.3978305504371039e-05 -5.8212137065517184e-05 -6.2908667138327615e-05 -6.8132780076882963e-05 -7.3960603965907861e-05 -8.0481852158463820e-05 -8.7802739655965515e-05 -9.6049637671858054e-05 -1.0537368296692380e-04 -1.1595663264592381e-04 -1.2801835658743775e-04 -1.4182650008080127e-04 -1.5770904987000392e-04 -1.7607082434879193e-04 -1.9741532049119396e-04 -2.2237395466659656e-04 -2.5174563583093130e-04 -2.8655096222442367e-04 -3.2810740305263555e-04 -3.7813505632350254e-04 -4.3890768981615297e-04 -5.1347204965492292e-04 -6.0597211787181840e-04 -7.2213818380599277e-04 -8.7004085911476683e-04 -1.0612819925691858e-03 -1.3129259452170335e-03 -1.6507207730170742e-03 -2.1146230610274062e-03 -2.7684927387665662e-03 -3.7172153853545806e-03 -5.1358813358469155e-03 -7.3124814133386238e-03 -1.0677013012351284e-02 -1.5659290959239375e-02 -2.1750359365847405e-02 -2.3746451053478730e-02 1.5585518549788603e-04 1.1646019744130912e-01 4.5053391008025989e-01 1.0000000000000000e+00 0.0000000000000000e+00 -4.1597567751404736e-06 -5.5320373591546312e-06 -5.9929342689350744e-06 -6.1363957674186052e-06 -6.1856789693755585e-06 -6.2122099632742636e-06 -6.2362472534922404e-06 -6.2630133395786008e-06 -6.2937597877220351e-06 -6.3287871468010848e-06 -6.3681961609428535e-06 -6.4120590333882722e-06 -6.4604543274372361e-06 -6.5134725742563683e-06 -6.5712164974240551e-06 -6.6338006816276846e-06 -6.7013514543930243e-06 -6.7740069977261712e-06 -6.8519176346581647e-06 -6.9352462681913056e-06 -7.0241689589102240e-06 -7.1188756070775347e-06 -7.2195706959010529e-06 -7.3264740800937073e-06 -7.4398218465906972e-06 -7.5598672865813369e-06 -7.6868819878563664e-06 -7.8211570223303089e-06 -7.9630042112517187e-06 -8.1127574921220736e-06 -8.2707744325167554e-06 -8.4374379069820457e-06 -8.6131579107936080e-06 -8.7983734917639746e-06 -8.9935548383371772e-06 -9.1992055988270592e-06 -9.4158654707082756e-06 -9.6441130321522444e-06 -9.8845687814992034e-06 -1.0137898420231281e-05 -1.0404816474029964e-05 -1.0686090317578761e-05 -1.0982544597126829e-05 -1.1295066040441280e-05 -1.1624608722889131e-05 -1.1972199910645959e-05 -1.2338946548540636e-05 -1.2726042383553069e-05 -1.3134775749979207e-05 -1.3566538167332555e-05 -1.4022833949062564e-05 -1.4505290922930898e-05 -1.5015672277896034e-05 -1.5555889635501035e-05 -1.6128017603830796e-05 -1.6734310091366429e-05 -1.7377218540043829e-05 -1.8059412220905279e-05 -1.8783800915244278e-05 -1.9553560447940217e-05 -2.0372161459887138e-05 -2.1243401703754404e-05 -2.2171442310971928e-05 -2.3160848781852100e-05 -2.4216637522744719e-05 -2.5344328621261682e-05 -2.6550005643537580e-05 -2.7840383653647836e-05 -2.9222886948877752e-05 -3.0705737983026500e-05 -3.2298059088087770e-05 -3.4009989212223439e-05 -3.5852818492486415e-05 -3.7839143692397873e-05 -3.9983047904858208e-05 -4.2300308961228046e-05 -4.4808642132083965e-05 -4.7527983436665843e-05 -5.0480821006767919e-05 -5.3692584164877339e-05 -5.7192102217725797e-05 -6.1012146857329829e-05 -6.5190075126484031e-05 -6.9768595096858063e-05 -7.4796681910825394e-05 -8.0330677258875702e-05 -8.6435613919641504e-05 -9.3186819742323770e-05 -1.0067186972197680e-04 -1.0899297191882038e-04 -1.1826989838281889e-04 -1.2864360662507483e-04 -1.4028073955444471e-04 -1.5337924920582122e-04 -1.6817547051578894e-04 -1.8495307968285842e-04 -2.0405451840317475e-04 -2.2589567238934767e-04 -2.5098488360550728e-04 -2.7994778469189052e-04 -3.1356003173586795e-04 -3.5279086642404391e-04 -3.9886169060897618e-04 -4.5332569807595823e-04 -5.1817742169949692e-04 -5.9600536024573909e-04 -6.9020754560393071e-04 -8.0530051254297584e-04 -9.4736919970033048e-04 -1.1247332930617950e-03 -1.3489522716950660e-03 -1.6363708497926285e-03 -2.0105432734906187e-03 -2.5061107590164653e-03 -3.1751013305188302e-03 -4.0972094970139882e-03 -5.3961276874903829e-03 -7.2626375289897623e-03 -9.9738240134278500e-03 -1.3846047780958156e-02 -1.8869052672309920e-02 -2.3177152591210524e-02 -1.8040221935297682e-02 2.5036176354564708e-02 1.7414299212990184e-01 5.1673282834142975e-01 1.0000000000000000e+00 0.0000000000000000e+00 -5.8046627842404720e-06 -7.6806457430701718e-06 -8.3069198188495577e-06 -8.5022858467998714e-06 -8.5703025989876652e-06 -8.6074542075874459e-06 -8.6411139619898972e-06 -8.6784156159622483e-06 -8.7211250622320632e-06 -8.7696985189469659e-06 -8.8243017181064204e-06 -8.8850493337994599e-06 -8.9520579269686875e-06 -9.0254568662159107e-06 -9.1053904051561183e-06 -9.1920181429384009e-06 -9.2855153282060264e-06 -9.3860732614467609e-06 -9.4938998377391540e-06 -9.6092202417984390e-06 -9.7322777833124530e-06 -9.8633348357115698e-06 -1.0002673847220681e-05 -1.0150598432605708e-05 -1.0307434586265867e-05 -1.0473532046749730e-05 -1.0649265802044326e-05 -1.0835037707600126e-05 -1.1031278219140018e-05 -1.1238448284361876e-05 -1.1457041436561182e-05 -1.1687586089569814e-05 -1.1930648007991726e-05 -1.2186832961611586e-05 -1.2456789629824015e-05 -1.2741212824962572e-05 -1.3040847043653441e-05 -1.3356490312097210e-05 -1.3688998330828691e-05 -1.4039289003329318e-05 -1.4408347449473223e-05 -1.4797231539631929e-05 -1.5207077936680059e-05 -1.5639108681832018e-05 -1.6094638445755121e-05 -1.6575082567894565e-05 -1.7081965925528142e-05 -1.7616932647220072e-05 -1.8181756784002277e-05 -1.8778354156205104e-05 -1.9408795559207746e-05 -2.0075321398716953e-05 -2.0780357833112043e-05 -2.1526534658577428e-05 -2.2316705279089292e-05 -2.3153969030263915e-05 -2.4041696041185516e-05 -2.4983554931348863e-05 -2.5983543845514787e-05 -2.7046025358573594e-05 -2.8175765662529859e-05 -2.9377978500319782e-05 -3.0658374615277631e-05 -3.2023217700429584e-05 -3.3479387764812084e-05 -3.5034452817374821e-05 -3.6696750122542026e-05 -3.8475478719763070e-05 -4.0380805014303857e-05 -4.2423983293879103e-05 -4.4617493537506460e-05 -4.6975199663886705e-05 -4.9512531787658427e-05 -5.2246696293265451e-05 -5.5196918421405792e-05 -5.8384723540034875e-05 -6.1834264409563815e-05 -6.5572702602540792e-05 -6.9630654043249175e-05 -7.4042711584340395e-05 -7.8848060325197530e-05 -8.4091203922188860e-05 -8.9822824354023731e-05 -9.6100804050818539e-05 -1.0299144624005229e-04 -1.1057093690036298e-04 -1.1892710281402602e-04 -1.2816153567335581e-04 -1.3839217028856121e-04 -1.4975642768377332e-04 -1.6241506592013549e-04 -1.7655692340764760e-04 -1.9240479247689397e-04 -2.1022273346007651e-04 -2.3032523866298532e-04 -2.5308878639373003e-04 -2.7896650401234533e-04 -3.0850690884217822e-04 -3.4237803934787474e-04 -3.8139876864634581e-04 -4.2657977619683631e-04 -4.7917762814126997e-04 -5.4076682098235039e-04 -6.1333669922542357e-04 -6.9942319116349889e-04 -8.0228983388972808e-04 -9.2617940561124561e-04 -1.0766679469064464e-03 -1.2611691188198168e-03 -1.4896620794714920e-03 -1.7757557040104198e-03 -2.1382643291179872e-03 -2.6035671361954822e-03 -3.2091672819444003e-03 -4.0090508755941069e-03 -5.0815490087941732e-03 -6.5398052369036314e-03 -8.5410374531233908e-03 -1.1273732977086613e-02 -1.4838219935343878e-02 -1.8725600472376681e-02 -2.0005557466562549e-02 -8.0753176670944476e-03 4.6986368850444875e-02 2.0725999638713233e-01 5.4046269150706971e-01 1.0000000000000000e+00 0.0000000000000000e+00 -7.4542987677560254e-06 -9.8371465455629203e-06 -1.0629138981255365e-05 -1.0875924063069242e-05 -1.0962262851373692e-05 -1.1009827728399544e-05 -1.1053030887956822e-05 -1.1100843803827663e-05 -1.1155507617910036e-05 -1.1217618279196982e-05 -1.1287401385622548e-05 -1.1365013049820341e-05 -1.1450608004136110e-05 -1.1544354794781004e-05 -1.1646439409256338e-05 -1.1757066480103470e-05 -1.1876460035103432e-05 -1.2004864226781598e-05 -1.2142544158908149e-05 -1.2289786848768761e-05 -1.2446902318001215e-05 -1.2614224783931872e-05 -1.2792113943346575e-05 -1.2980956379720335e-05 -1.3181167136236516e-05 -1.3393191464925557e-05 -1.3617506725912304e-05 -1.3854624418551829e-05 -1.4105092373371784e-05 -1.4369497162424551e-05 -1.4648466759717229e-05 -1.4942673436515529e-05 -1.5252836876598620e-05 -1.5579727549695289e-05 -1.5924170420902595e-05 -1.6287049044151334e-05 -1.6669310027407903e-05 -1.7071967855423484e-05 -1.7496110126792109e-05 -1.7942903318150907e-05 -1.8413599154151899e-05 -1.8909541589031629e-05 -1.9432174407236455e-05 -1.9983049538692316e-05 -2.0563836242105465e-05 -2.1176331258125346e-05 -2.1822469962183636e-05 -2.2504338587617016e-05 -2.3224187714130369e-05 -2.3984447257730617e-05 -2.4787743105073557e-05 -2.5636915473429285e-05 -2.6535039186139315e-05 -2.7485446215149569e-05 -2.8491750847718041e-05 -2.9557877723547986e-05 -3.0688093009253458e-05 -3.1887039183402367e-05 -3.3159774044488667e-05 -3.4511814478503259e-05 -3.5949185475001118e-05 -3.7478475108360859e-05 -3.9106896511767636e-05 -4.0842357924460381e-05 -4.2693541814168766e-05 -4.4669994293153544e-05 -4.6782226535549495e-05 -4.9041830195962167e-05 -5.1461608864396124e-05 -5.4055727904170475e-05 -5.6839885782727063e-05 -5.9831510673295159e-05 -6.3049986435796801e-05 -6.6516912695315821e-05 -7.0256405011936708e-05 -7.4295442520776281e-05 -7.8664271560671022e-05 -8.3396875344133304e-05 -8.8531522109523431e-05 -9.4111406978454010e-05 -1.0018540578746475e-04 -1.0680896316972345e-04 -1.1404514238129150e-04 -1.2196587059874651e-04 -1.3065342130902645e-04 -1.4020218579746758e-04 -1.5072079856477103e-04 -1.6233469742363163e-04 -1.7518922013776055e-04 -1.8945336716865078e-04 -2.0532439518890257e-04 -2.2303345145981070e-04 -2.4285251985766589e-04 -2.6510302990823343e-04 -2.9016658616532419e-04 -3.1849841693063570e-04 -3.5064433416256600e-04 -3.8726225802849623e-04 -4.2914971522226453e-04 -4.7727921265413383e-04 -5.3284407351619019e-04 -5.9731827799604058e-04 -6.7253520056488559e-04 -7.6079205563377432e-04 -8.6498960341014155e-04 -9.8882061426150956e-04 -1.1370262965146494e-03 -1.3157481518507042e-03 -1.5330146760042173e-03 -1.7994194731545013e-03 -2.1290714715738799e-03 -2.5409303914001417e-03 -3.0606797856432950e-03 -3.7233224281133796e-03 -4.5766525231820225e-03 -5.6854562196394908e-03 -7.1349424576150388e-03 -9.0266840164762736e-03 -1.1441269339480250e-02 -1.4276145150915276e-02 -1.6660784882872877e-02 -1.5100267607666178e-02 1.5438362797616225e-03 6.2313734631489669e-02 2.2386438834498143e-01 5.4708089690091721e-01 1.0000000000000000e+00 0.0000000000000000e+00 -9.1005233117349060e-06 -1.1990346727027872e-05 -1.2948053972994150e-05 -1.3246010666063407e-05 -1.3350401035099400e-05 -1.3408174971254049e-05 -1.3460778564803702e-05 -1.3518992690439644e-05 -1.3585510730710935e-05 -1.3661054865959480e-05 -1.3745903777224075e-05 -1.3840251867517825e-05 -1.3944290574451194e-05 -1.4058226826837240e-05 -1.4182287754946364e-05 -1.4316722438538374e-05 -1.4461803026895638e-05 -1.4617825770099981e-05 -1.4785112119938561e-05 -1.4964009950250630e-05 -1.5154894894165565e-05 -1.5358171785849493e-05 -1.5574276223742864e-05 -1.5803676299420143e-05 -1.6046874523223201e-05 -1.6304409935427741e-05 -1.6576860373686350e-05 -1.6864844901814019e-05 -1.7169026454631791e-05 -1.7490114757699745e-05 -1.7828869534058464e-05 -1.8186103975738536e-05 -1.8562688485369291e-05 -1.8959554751305134e-05 -1.9377700230310185e-05 -1.9818193060653997e-05 -2.0282177390705979e-05 -2.0770879148173730e-05 -2.1285612350541652e-05 -2.1827786067270113e-05 -2.2398912074778423e-05 -2.3000613200111273e-05 -2.3634632408432928e-05 -2.4302842784756742e-05 -2.5007258564221879e-05 -2.5750047282841565e-05 -2.6533543094003392e-05 -2.7360261395536048e-05 -2.8232915013347453e-05 -2.9154432153040653e-05 -3.0127976233811690e-05 -3.1156967751117298e-05 -3.2245108482716436e-05 -3.3396408444100993e-05 -3.4615215914944621e-05 -3.5906250793631947e-05 -3.7274641683689287e-05 -3.8725967329497054e-05 -4.0266303038186040e-05 -4.1902272626436312e-05 -4.3641106536582119e-05 -4.5490707091761743e-05 -4.7459722047355331e-05 -4.9557627534472554e-05 -5.1794821561163954e-05 -5.4182729667974077e-05 -5.6733924760690198e-05 -5.9462263251180181e-05 -6.2383039798467814e-05 -6.5513163575959426e-05 -6.8871359749134520e-05 -7.2478400255960245e-05 -7.6357368454537281e-05 -8.0533963340806251e-05 -8.5036850417734636e-05 -8.9898067304047873e-05 -9.5153493464287338e-05 -1.0084339582708249e-04 -1.0701306475047950e-04 -1.1371355708013181e-04 -1.2100256633587740e-04 -1.2894544541582119e-04 -1.3761641301999794e-04 -1.4709998072783524e-04 -1.5749264619705449e-04 -1.6890491026674015e-04 -1.8146368925836689e-04 -1.9531520960951288e-04 -2.1062849493759785e-04 -2.2759958549198328e-04 -2.4645666515255363e-04 -2.6746631762919221e-04 -2.9094119688150412e-04 -3.1724947697970771e-04 -3.4682655048214452e-04 -3.8018958509103418e-04 -4.1795573432309443e-04 -4.6086504319191150e-04 -5.0980942171318614e-04 -5.6586950699524612e-04 -6.3036183758539434e-04 -7.0489958466351816e-04 -7.9147120467397164e-04 -8.9254290102984239e-04 -1.0111928571894233e-03 -1.1512880159841548e-03 -1.3177179417740419e-03 -1.5167052374193725e-03 -1.7562182122336399e-03 -2.0465187446509505e-03 -2.4008852995038845e-03 -2.8365540334225363e-03 -3.3759097693591804e-03 -4.0479069529530277e-03 -4.8895351862353357e-03 -5.9466394766605540e-03 -7.2718009216141645e-03 -8.9115750976790607e-03 -1.0856666461533503e-02 -1.2865469502934677e-02 -1.3875867274992584e-02 -1.0209333654242616e-02 9.1496992200816203e-03 7.1955621506467338e-02 2.3160099590996400e-01 5.4778252624945911e-01 1.0000000000000000e+00 0.0000000000000000e+00 -1.0740844411313705e-05 -1.4136368070231176e-05 -1.5259463493473606e-05 -1.5608414771112001e-05 -1.5730687006245543e-05 -1.5798508881254128e-05 -1.5860365339301906e-05 -1.5928840916445514e-05 -1.6007072185912837e-05 -1.6095899955348559e-05 -1.6195650851156054e-05 -1.6306554384079871e-05 -1.6428836721282293e-05 -1.6562741834980213e-05 -1.6708536939491099e-05 -1.6866514583041597e-05 -1.7036994033014163e-05 -1.7220322557074652e-05 -1.7416876769975826e-05 -1.7627064092926851e-05 -1.7851324325606209e-05 -1.8090131336220170e-05 -1.8343994905937888e-05 -1.8613462773017514e-05 -1.8899122889278746e-05 -1.9201605863626265e-05 -1.9521587575608413e-05 -1.9859791993755992e-05 -2.0216994268577573e-05 -2.0594024145038741e-05 -2.0991769685923160e-05 -2.1411181288547730e-05 -2.1853276027983089e-05 -2.2319142405480658e-05 -2.2809945560244596e-05 -2.3326932948158611e-05 -2.3871440489551826e-05 -2.4444899256558478e-05 -2.5048842821532510e-05 -2.5684915349184084e-05 -2.6354880441622493e-05 -2.7060630753917858e-05 -2.7804198496615971e-05 -2.8587767005176914e-05 -2.9413683503660383e-05 -3.0284473114487288e-05 -3.1202854205718702e-05 -3.2171755290455817e-05 -3.3194333732577639e-05 -3.4273996427233186e-05 -3.5414422582232211e-05 -3.6619588850861155e-05 -3.7893797221194216e-05 -3.9241706053152480e-05 -4.0668364544666674e-05 -4.2179250956471855e-05 -4.3780315150493854e-05 -4.5478026127249690e-05 -4.7279425169940039e-05 -4.9192185188107985e-05 -5.1224677112173781e-05 -5.3386044479765208e-05 -5.5686287377133627e-05 -5.8136356860570473e-05 -6.0748261281340288e-05 -6.3535186434879857e-05 -6.6511631684243027e-05 -6.9693564256455564e-05 -7.3098594340743420e-05 -7.6746174424858332e-05 -8.0657826860147121e-05 -8.4857403925482774e-05 -8.9371385447521457e-05 -9.4229220471974372e-05 -9.9463720701223194e-05 -1.0511151426867893e-04 -1.1121357003525910e-04 -1.1781580531287195e-04 -1.2496979255562535e-04 -1.3273358286447208e-04 -1.4117266778856615e-04 -1.5036110644640814e-04 -1.6038285083902370e-04 -1.7133330833523546e-04 -1.8332118916442730e-04 -1.9647069883111715e-04 -2.1092414885100761e-04 -2.2684507558298303e-04 -2.4442197966021600e-04 -2.6387282699422571e-04 -2.8545048639845642e-04 -3.0944932411500393e-04 -3.3621323488375245e-04 -3.6614546253740368e-04 -3.9972065851420264e-04 -4.3749975329842916e-04 -4.8014837691526220e-04 -5.2845977384035410e-04 -5.8338343473732300e-04 -6.4606102508233982e-04 -7.1787165515741587e-04 -8.0048914316229315e-04 -8.9595470002681659e-04 -1.0067694495669009e-03 -1.1360124241602356e-03 -1.2874911299727474e-03 -1.4659333796299041e-03 -1.6772305849824469e-03 -1.9287434362387859e-03 -2.2296794678651867e-03 -2.5915454709596530e-03 -3.0286600213836482e-03 -3.5586701556557516e-03 -4.2029243744126912e-03 -4.9863447076288194e-03 -5.9359151309928380e-03 -7.0753793749997653e-03 -8.4087122255318159e-03 -9.8673661294453666e-03 -1.1136298243478069e-02 -1.1086868404213072e-02 -6.0573304649526576e-03 1.4652157086367528e-02 7.7777083280846718e-02 2.3506906767545821e-01 5.4685262596720419e-01 1.0000000000000000e+00 0.0000000000000000e+00 -1.2374039402478693e-05 -1.6273278926085030e-05 -1.7561184325322394e-05 -1.7960931236513535e-05 -1.8100952347686100e-05 -1.8178687828668386e-05 -1.8249653758990846e-05 -1.8328237755004264e-05 -1.8418017317970221e-05 -1.8519948625007363e-05 -1.8634403181676228e-05 -1.8761643153911034e-05 -1.8901927556841259e-05 -1.9055535906611347e-05 -1.9222774198697213e-05 -1.9403977207583455e-05 -1.9599510052155130e-05 -1.9809769676927254e-05 -2.0035186413205141e-05 -2.0276225655299510e-05 -2.0533389653874458e-05 -2.0807219447865755e-05 -2.1098296982239507e-05 -2.1407247448327962e-05 -2.1734741841433344e-05 -2.2081499709462233e-05 -2.2448292099547843e-05 -2.2835944762572995e-05 -2.3245341683571277e-05 -2.3677428958124799e-05 -2.4133218993478524e-05 -2.4613795036155589e-05 -2.5120316088386503e-05 -2.5654022294246729e-05 -2.6216240830437130e-05 -2.6808392298437636e-05 -2.7431997651814312e-05 -2.8088685765411324e-05 -2.8780201762085956e-05 -2.9508416141767773e-05 -3.0275334714477622e-05 -3.1083109404134041e-05 -3.1934050091508926e-05 -3.2830637670112008e-05 -3.3775538403004472e-05 -3.4771619639389464e-05 -3.5821967048696947e-05 -3.6929903630305068e-05 -3.8099010723901959e-05 -3.9333151158727412e-05 -4.0636494727151392e-05 -4.2013546338023811e-05 -4.3469177280830884e-05 -4.5008659935379808e-05 -4.6637706210794332e-05 -4.8362510166012600e-05 -5.0189795477148131e-05 -5.2126868422554322e-05 -5.4181676968156088e-05 -5.6362876670448143e-05 -5.8679904436309088e-05 -6.1143061325626117e-05 -6.3763605513060596e-05 -6.6553856649539782e-05 -6.9527313327753893e-05 -7.2698785734208845e-05 -7.6084545628981204e-05 -7.9702495984315756e-05 -8.3572363280186456e-05 -8.7715916159605573e-05 -9.2157214487864432e-05 -9.6922893320201372e-05 -1.0204248737133209e-04 -1.0754880285045878e-04 -1.1347834448971983e-04 -1.1987180678736474e-04 -1.2677464045349700e-04 -1.3423770733671911e-04 -1.4231803943829161e-04 -1.5107972063946180e-04 -1.6059491373870207e-04 -1.7094505992200712e-04 -1.8222228328586992e-04 -1.9453104025080221e-04 -2.0799006232114447e-04 -2.2273465077402534e-04 -2.3891939505439640e-04 -2.5672140352582973e-04 -2.7634415535176513e-04 -2.9802210718787159e-04 -3.2202622064398322e-04 -3.4867061701715127e-04 -3.7832061570026082e-04 -4.1140247583383349e-04 -4.4841524161809421e-04 -4.8994519277213082e-04 -5.3668352769408042e-04 -5.8944806688916078e-04 -6.4920996361988342e-04 -7.1712665237043741e-04 -7.9458256456073936e-04 -8.8323949525926434e-04 -9.8509890340603358e-04 -1.1025788516639259e-03 -1.2386086678730479e-03 -1.3967445915570907e-03 -1.5813093800907004e-03 -1.7975575327030882e-03 -2.0518644432208581e-03 -2.3519305919172712e-03 -2.7069775618452120e-03 -3.1278854663060176e-03 -3.6271708267375958e-03 -4.2186091923580313e-03 -4.9161165833187092e-03 -5.7310552375952348e-03 -6.6658125566625261e-03 -7.6969524731051141e-03 -8.7246946735813295e-03 -9.4076170629565272e-03 -8.6193359818963772e-03 -2.7871978452727567e-03 1.8488559802774023e-02 8.1278347715265029e-02 2.3659072684523311e-01 5.4569733888127492e-01 1.0000000000000000e+00 0.0000000000000000e+00 -1.3999112394329925e-05 -1.8399628423018556e-05 -1.9851578497631309e-05 -2.0301872530760280e-05 -2.0459509860772822e-05 -2.0547031786980357e-05 -2.0626963023514373e-05 -2.0715491674804790e-05 -2.0816635796368992e-05 -2.0931465826654770e-05 -2.1060396522728939e-05 -2.1203720994757306e-05 -2.1361729502679423e-05 -2.1534735624210944e-05 -2.1723082716982652e-05 -2.1927146361595317e-05 -2.2147336058514549e-05 -2.2384096874495118e-05 -2.2637911190383790e-05 -2.2909300571139670e-05 -2.3198827764173697e-05 -2.3507098860680090e-05 -2.3834765669926410e-05 -2.4182528329437596e-05 -2.4551138134493752e-05 -2.4941400572527904e-05 -2.5354178596476561e-05 -2.5790396208680714e-05 -2.6251042405049337e-05 -2.6737175474243885e-05 -2.7249927633938040e-05 -2.7790510036905004e-05 -2.8360218231175108e-05 -2.8960438142360928e-05 -2.9592652590024507e-05 -3.0258448342916125e-05 -3.0959523783808541e-05 -3.1697697308418437e-05 -3.2474916547352589e-05 -3.3293268427352619e-05 -3.4154990096683607e-05 -3.5062480840186119e-05 -3.6018315174870421e-05 -3.7025257263016132e-05 -3.8086276701960865e-05 -3.9204565789600581e-05 -4.0383558488778623e-05 -4.1626951353087397e-05 -4.2938726592890327e-05 -4.4323177425763042e-05 -4.5784935985813826e-05 -4.7329004213211845e-05 -4.8960788117598166e-05 -5.0686135699850407e-05 -5.2511378881240434e-05 -5.4443380020524780e-05 -5.6489583714747233e-05 -5.8658074493153419e-05 -6.0957641016483599e-05 -6.3397847661569859e-05 -6.5989114628354627e-05 -6.8742807694311404e-05 -7.1671338723604787e-05 -7.4788278369972529e-05 -7.8108482873471424e-05 -8.1648237009101257e-05 -8.5425415293139778e-05 -8.9459664010769639e-05 -9.3772607343721887e-05 -9.8388081283927160e-05 -1.0333239930649533e-04 -1.0863465461934273e-04 -1.1432706499665413e-04 -1.2044536701181599e-04 -1.2702926730587621e-04 -1.3412296026486272e-04 -1.4177572359154320e-04 -1.5004260482053718e-04 -1.5898521388390285e-04 -1.6867264055741435e-04 -1.7918251960515183e-04 -1.9060226977883472e-04 -2.0303053791250432e-04 -2.1657888712719542e-04 -2.3137377590041412e-04 -2.4755888288372554e-04 -2.6529784483594600e-04 -2.8477749083744393e-04 -3.0621167227708906e-04 -3.2984580911232602e-04 -3.5596230146455544e-04 -3.8488698804271706e-04 -4.16996