<?xml version='1.0' encoding='utf-8'?>
<VTKFile type="UnstructuredGrid" version="0.1" byte_order="LittleEndian">
  <UnstructuredGrid>
    <Piece NumberOfPoints="16384" NumberOfCells="16129">
      <PointData>
        <DataArray type="Float64" Name="velocity_u" NumberOfComponents="1">0.0000000000000000e+00 0.0000000000000000e+00 0.0000000000000000e+00 0.0000000000000000e+00 0.0000000000000000e+00 0.0000000000000000e+00 0.0000000000000000e+00 0.0000000000000000e+00 0.0000000000000000e+00 0.0000000000000000e+00 0.0000000000000000e+00 0.0000000000000000e+00 0.0000000000000000e+00 0.0000000000000000e+00 0.0000000000000000e+00 0.0000000000000000e+00 0.0000000000000000e+00 0.0000000000000000e+00 0.0000000000000000e+00 0.0000000000000000e+00 0.0000000000000000e+00 0.0000000000000000e+00 0.0000000000000000e+00 0.0000000000000000e+00 0.0000000000000000e+00 0.0000000000000000e+00 0.0000000000000000e+00 0.0000000000000000e+00 0.0000000000000000e+00 0.0000000000000000e+00 0.0000000000000000e+00 0.0000000000000000e+00 0.0000000000000000e+00 0.0000000000000000e+00 0.0000000000000000e+00 0.0000000000000000e+00 0.0000000000000000e+00 0.0000000000000000e+00 0.0000000000000000e+00 0.0000000000000000e+00 0.0000000000000000e+00 0.0000000000000000e+00 0.0000000000000000e+00 0.0000000000000000e+00 0.0000000000000000e+00 0.0000000000000000e+00 0.0000000000000000e+00 0.0000000000000000e+00 0.0000000000000000e+00 0.0000000000000000e+00 0.0000000000000000e+00 0.0000000000000000e+00 0.0000000000000000e+00 0.0000000000000000e+00 0.0000000000000000e+00 0.0000000000000000e+00 0.0000000000000000e+00 0.0000000000000000e+00 0.0000000000000000e+00 0.0000000000000000e+00 0.0000000000000000e+00 0.0000000000000000e+00 0.0000000000000000e+00 0.0000000000000000e+00 0.0000000000000000e+00 0.0000000000000000e+00 0.0000000000000000e+00 0.0000000000000000e+00 0.0000000000000000e+00 0.0000000000000000e+00 0.0000000000000000e+00 0.0000000000000000e+00 0.0000000000000000e+00 0.0000000000000000e+00 0.0000000000000000e+00 0.0000000000000000e+00 0.0000000000000000e+00 0.0000000000000000e+00 0.0000000000000000e+00 0.0000000000000000e+00 0.0000000000000000e+00 0.0000000000000000e+00 0.0000000000000000e+00 0.0000000000000000e+00 0.0000000000000000e+00 0.0000000000000000e+00 0.0000000000000000e+00 0.0000000000000000e+00 0.0000000000000000e+00 0.0000000000000000e+00 0.0000000000000000e+00 0.0000000000000000e+00 0.0000000000000000e+00 0.0000000000000000e+00 0.0000000000000000e+00 0.0000000000000000e+00 0.0000000000000000e+00 0.0000000000000000e+00 0.0000000000000000e+00 0.0000000000000000e+00 0.0000000000000000e+00 0.0000000000000000e+00 0.0000000000000000e+00 0.0000000000000000e+00 0.0000000000000000e+00 0.0000000000000000e+00 0.0000000000000000e+00 0.0000000000000000e+00 0.0000000000000000e+00 0.0000000000000000e+00 0.0000000000000000e+00 0.0000000000000000e+00 0.0000000000000000e+00 0.0000000000000000e+00 0.0000000000000000e+00 0.0000000000000000e+00 0.0000000000000000e+00 0.0000000000000000e+00 0.0000000000000000e+00 0.0000000000000000e+00 0.0000000000000000e+00 0.0000000000000000e+00 0.0000000000000000e+00 0.0000000000000000e+00 0.0000000000000000e+00 0.0000000000000000e+00 0.0000000000000000e+00 1.0000000000000000e+00 0.0000000000000000e+00 -1.2363808412106241e-06 -2.0199447015703045e-06 -2.3974548069828052e-06 -2.5532710009940821e-06 -2.6118466083191076e-06 -2.6346156241722506e-06 -2.6468801948558764e-06 -2.6576401205931560e-06 -2.6696494550053369e-06 -2.6835939909986963e-06 -2.6995819930550823e-06 -2.7176037434741027e-06 -2.7376487831007375e-06 -2.7597257235384121e-06 -2.7838600917935965e-06 -2.8100898346938849e-06 -2.8384622011261389e-06 -2.8690320003212919e-06 -2.9018607155899483e-06 -2.9370160998807746e-06 -2.9745720675765549e-06 -3.0146087946000270e-06 -3.0572129564926006e-06 -3.1024780322999910e-06 -3.1505046319751633e-06 -3.2014008583880672e-06 -3.2552827416252077e-06 -3.3122747566801894e-06 -3.3725103920835042e-06 -3.4361327359326653e-06 -3.5032950944131558e-06 -3.5741616957661117e-06 -3.6489085076117860e-06 -3.7277241335599350e-06 -3.8108107389416023e-06 -3.8983850137306044e-06 -3.9906792461162240e-06 -4.0879425662220852e-06 -4.1904423395217021e-06 -4.2984656477727439e-06 -4.4123208516208908e-06 -4.5323393114661228e-06 -4.6588773394427361e-06 -4.7923183704442165e-06 -4.9330752994713278e-06 -5.0815930056218862e-06 -5.2383511727140183e-06 -5.4038674881815199e-06 -5.5787011875994171e-06 -5.7634568844602055e-06 -5.9587887468745269e-06 -6.1654051945900104e-06 -6.3840742291486111e-06 -6.6156293663016732e-06 -6.8609761414612177e-06 -7.1210993250944614e-06 -7.3970710763754698e-06 -7.6900601473496669e-06 -8.0013421326201000e-06 -8.3323108749099269e-06 -8.6844913493819444e-06 -9.0595543408149562e-06 -9.4593330286419038e-06 -9.8858415847558511e-06 -1.0341296177335571e-05 -1.0828138973982779e-05 -1.1349065592545514e-05 -1.1907056308950840e-05 -1.2505411590882719e-05 -1.3147792908553514e-05 -1.3838269783358939e-05 -1.4581373880923779e-05 -1.5382161244261097e-05 -1.6246284374674833e-05 -1.7180076117091937e-05 -1.8190647272913125e-05 -1.9286000352973542e-05 -2.0475162845862432e-05 -2.1768343919060977e-05 -2.3177118828451804e-05 -2.4714646754960904e-05 -2.6395929915491870e-05 -2.8238122838648310e-05 -3.0260901494154542e-05 -3.2486905511312356e-05 -3.4942272302198143e-05 -3.7657285682775683e-05 -4.0667164863884103e-05 -4.4013028117236479e-05 -4.7743078360702882e-05 -5.1914070370047772e-05 -5.6593134704544047e-05 -6.1860059105463193e-05 -6.7810162647377137e-05 -7.4557940364554303e-05 -8.2241717073231808e-05 -9.1029637617993342e-05 -1.0112744110600698e-04 -1.1278863708949587e-04 -1.2632795212733129e-04 -1.4213927874029756e-04 -1.6071989315990628e-04 -1.8270351504907310e-04 -2.0890601511729657e-04 -2.4038948708221306e-04 -2.7855342904572366e-04 -3.2526668639628627e-04 -3.8306193576483343e-04 -4.5542830549293804e-04 -5.4726184689411685e-04 -6.6557669101349520e-04 -8.2065818589288977e-04 -1.0279823650275572e-03 -1.3114796854421587e-03 -1.7091326979644641e-03 -2.2824205745145152e-03 -3.1312663088382902e-03 -4.4139707853688452e-03 -6.3614805332726874e-03 -9.2437307917981083e-03 -1.3165214169059851e-02 -1.7379786502395758e-02 -1.8337429948477153e-02 -3.9839289352411617e-03 6.5722459936048694e-02 3.2223562321311672e-01 1.0000000000000000e+00 0.0000000000000000e+00 -3.2550667637800705e-06 -5.0119445501371747e-06 -5.8697909330258660e-06 -6.2398177674855385e-06 -6.3880642530544580e-06 -6.4499804374215126e-06 -6.4841548642306236e-06 -6.5128150002547400e-06 -6.5434367981394180e-06 -6.5782315489591001e-06 -6.6177568980253675e-06 -6.6621322165640139e-06 -6.7113985431481581e-06 -6.7656077274946374e-06 -6.8248368093352221e-06 -6.8891859085211770e-06 -6.9587744941687969e-06 -7.0337388257096474e-06 -7.1142305773111396e-06 -7.2004162839914991e-06 -7.2924773387445036e-06 -7.3906103573368906e-06 -7.4950277680408102e-06 -7.6059585291504630e-06 -7.7236489470560438e-06 -7.8483636230968243e-06 -7.9803865562054951e-06 -8.1200223851255408e-06 -8.2675977314310006e-06 -8.4234626378293967e-06 -8.5879921470208380e-06 -8.7615880678387177e-06 -8.9446809227253560e-06 -9.1377320352521999e-06 -9.3412357546287817e-06 -9.5557218888893190e-06 -9.7817584333055421e-06 -1.0019954609625457e-05 -1.0270964164856713e-05 -1.0535488908271644e-05 -1.0814282562020042e-05 -1.1108155040061489e-05 -1.1417977203013742e-05 -1.1744686064252128e-05 -1.2089290458905467e-05 -1.2452877291577097e-05 -1.2836618501098357e-05 -1.3241778786222389e-05 -1.3669724073458027e-05 -1.4121930801067352e-05 -1.4599996239149061e-05 -1.5105650064468016e-05 -1.5640767267427964e-05 -1.6207382416928550e-05 -1.6807705463193447e-05 -1.7444139424400425e-05 -1.8119300260871322e-05 -1.8836039104329730e-05 -1.9597467067398489e-05 -2.0406983102691333e-05 -2.1268305486816426e-05 -2.2185507364009724e-05 -2.3163056731665760e-05 -2.4205861537332414e-05 -2.5319320892030774e-05 -2.6509383405334787e-05 -2.7782613521319112e-05 -2.9146266984566059e-05 -3.0608377109520466e-05 -3.2177853795109035e-05 -3.3864597199300950e-05 -3.5679628334269240e-05 -3.7635239736499832e-05 -3.9745170076748102e-05 -4.2024806799027871e-05 -4.4491421497983358e-05 -4.7164444366246468e-05 -5.0065785787152309e-05 -5.3220214179379875e-05 -5.6655800542484257e-05 -6.0404443258971255e-05 -6.4502490941470745e-05 -6.8991484804025393e-05 -7.3919045785461043e-05 -7.9339938061609490e-05 -8.5317350341977200e-05 -9.1924447571183060e-05 -9.9246258327782740e-05 -1.0738198080177580e-04 -1.1644781504888970e-04 -1.2658046097078143e-04 -1.3794146269922788e-04 -1.5072263670202368e-04 -1.6515289740889175e-04 -1.8150689718185198e-04 -2.0011604097203511e-04 -2.2138263559127078e-04 -2.4579821060849015e-04 -2.7396744338523832e-04 -3.0663969077992457e-04 -3.4475095262220947e-04 -3.8948030380110796e-04 -4.4232664612699402e-04 -5.0521437427467259e-04 -5.8064077537703070e-04 -6.7188461579736935e-04 -7.8330596704047784e-04 -9.2078461437280947e-04 -1.0923732151820204e-03 -1.3092903666715990e-03 -1.5874633246811998e-03 -1.9499767530299248e-03 -2.4310330542763690e-03 -3.0824240597627050e-03 -3.9840201255780588e-03 -5.2599969464443511e-03 -7.1007699993357312e-03 -9.7816727089414073e-03 -1.3639768475087905e-02 -1.8890114847152379e-02 -2.4975934469679165e-02 -2.8753628118112381e-02 -2.0023294829111873e-02 2.8418750642704903e-02 1.7732253175764129e-01 5.1250631994333640e-01 1.0000000000000000e+00 0.0000000000000000e+00 -5.6472384343341013e-06 -8.4785478441139655e-06 -9.8486498811491812e-06 -1.0447526491362587e-05 -1.0694810796119574e-05 -1.0802456276687517e-05 -1.0863362645105484e-05 -1.0913775394174162e-05 -1.0966468359850845e-05 -1.1025539237181583e-05 -1.1092198817882574e-05 -1.1166804801131355e-05 -1.1249508339256890e-05 -1.1340437940950412e-05 -1.1439743675610901e-05 -1.1547604026079328e-05 -1.1664224734012668e-05 -1.1789836989234018e-05 -1.1924696365921047e-05 -1.2069082547883843e-05 -1.2223299664343120e-05 -1.2387677052202721e-05 -1.2562570294337143e-05 -1.2748362450351908e-05 -1.2945465474479889e-05 -1.3154321852697612e-05 -1.3375406467414319e-05 -1.3609228656871022e-05 -1.3856334440388527e-05 -1.4117308931943833e-05 -1.4392779001041757e-05 -1.4683416214906561e-05 -1.4989940043025662e-05 -1.5313121304074692e-05 -1.5653785900080345e-05 -1.6012818936956146e-05 -1.6391169299385545e-05 -1.6789854667061998e-05 -1.7209966938834520e-05 -1.7652678110829133e-05 -1.8119246739471181e-05 -1.8611025103603683e-05 -1.9129467092940941e-05 -1.9676136827750508e-05 -2.0252718103380672e-05 -2.0861024835712180e-05 -2.1503012644171362e-05 -2.2180791617023890e-05 -2.2896640326643609e-05 -2.3653021311237563e-05 -2.4452598326309534e-05 -2.5298255580878988e-05 -2.6193119064266159e-05 -2.7140580150487256e-05 -2.8144321876617418e-05 -2.9208348366417987e-05 -3.0337017760311448e-05 -3.1535078979801156e-05 -3.2807712864626330e-05 -3.4160578447651952e-05 -3.5599865114086070e-05 -3.7132351296064744e-05 -3.8765470546615885e-05 -4.0507386255068501e-05 -4.2367076475294558e-05 -4.4354430275550415e-05 -4.6480357164221615e-05 -4.8756911722128741e-05 -5.1197436121611662e-05 -5.3816723403208458e-05 -5.6631204673937020e-05 -5.9659164278779557e-05 -6.2920988087724759e-05 -6.6439450773941508e-05 -7.0240048732781108e-05 -7.4351386833821167e-05 -7.8805629293769670e-05 -8.3639027037296708e-05 -8.8892536324559812e-05 -9.4612546748860645e-05 -1.0085174072867729e-04 -1.0767011150092719e-04 -1.1513617349130498e-04 -1.2332840773590900e-04 -1.3233699464791567e-04 -1.4226589852471338e-04 -1.5323538622840339e-04 -1.6538508608305157e-04 -1.7887772051822248e-04 -1.9390368188201460e-04 -2.1068667176683727e-04 -2.2949069118803262e-04 -2.5062875501541789e-04 -2.7447382153820976e-04 -3.0147259037281043e-04 -3.3216304186297122e-04 -3.6719689337028549e-04 -4.0736857222418749e-04 -4.5365290384359521e-04 -5.0725456364880738e-04 -5.6967356618464141e-04 -6.4279285372970064e-04 -7.2899668649767651e-04 -8.3133248562234513e-04 -9.5373478331202465e-04 -1.1013391922664753e-03 -1.2809288098471962e-03 -1.5015785842359625e-03 -1.7756005594855033e-03 -2.1199541497635929e-03 -2.5583863030856327e-03 -3.1247295995387179e-03 -3.8680359532256813e-03 -4.8605444106254083e-03 -6.2096631725331282e-03 -8.0742855676916130e-03 -1.0680892480036119e-02 -1.4317755801701710e-02 -1.9236282193838845e-02 -2.5266660958521075e-02 -3.0695073929547435e-02 -2.9493998220588510e-02 -5.5364876863453500e-03 7.6254975691706861e-02 2.7098579633741299e-01 6.0969062773813643e-01 1.0000000000000000e+00 0.0000000000000000e+00 -8.1878564066446340e-06 -1.2148559031851292e-05 -1.4044275819837705e-05 -1.4873601216932026e-05 -1.5220242198929918e-05 -1.5374572465403087e-05 -1.5463591239807934e-05 -1.5537243874680457e-05 -1.5613485146699440e-05 -1.5698303644211623e-05 -1.5793604874396779e-05 -1.5900025656422733e-05 -1.6017857517053885e-05 -1.6147326127413076e-05 -1.6288668392455702e-05 -1.6442150924971644e-05 -1.6608073260470702e-05 -1.6786767894697073e-05 -1.6978600180867047e-05 -1.7183968708293463e-05 -1.7403306186388038e-05 -1.7637080723279675e-05 -1.7885797393399850e-05 -1.8150000053063030e-05 -1.8430273424066769e-05 -1.8727245471726315e-05 -1.9041590063005594e-05 -1.9374029866660805e-05 -1.9725339490695445e-05 -2.0096348909367437e-05 -2.0487947243721312e-05 -2.0901086912824267e-05 -2.1336788136137096e-05 -2.1796143799567949e-05 -2.2280324769758985e-05 -2.2790585758867633e-05 -2.3328271779308711e-05 -2.3894825169235464e-05 -2.4491793205721751e-05 -2.5120836421388398e-05 -2.5783737779427734e-05 -2.6482412795994190e-05 -2.7218920631397572e-05 -2.7995476215804585e-05 -2.8814463585866485e-05 -2.9678450638254776e-05 -3.0590205425113894e-05 -3.1552714072802982e-05 -3.2569200510701581e-05 -3.3643148340633711e-05 -3.4778325174512362e-05 -3.5978809649133843e-05 -3.7249021321266620e-05 -3.8593753835389180e-05 -4.0018211928007833e-05 -4.1528052798463145e-05 -4.3129432286607308e-05 -4.4829056423241547e-05 -4.6634239200769870e-05 -4.8552967533304511e-05 -5.0593974299417479e-05 -5.2766820438987658e-05 -5.5081987474590375e-05 -5.7550982204078951e-05 -6.0186455376247354e-05 -6.3002336227719892e-05 -6.6013985253383686e-05 -6.9238368283495555e-05 -7.2694255351933357e-05 -7.6402448140408169e-05 -8.0386040589880780e-05 -8.4670718499414642e-05 -8.9285104927197746e-05 -9.4261159093335508e-05 -9.9634638132891149e-05 -1.0544563343104272e-04 -1.1173919545498356e-04 -1.1856606326371199e-04 -1.2598351874278883e-04 -1.3405639094991832e-04 -1.4285824101204042e-04 -1.5247276347462259e-04 -1.6299544908591034e-04 -1.7453556679074956e-04 -1.8721853608546089e-04 -2.0118877619935483e-04 -2.1661314160959560e-04 -2.3368508477493715e-04 -2.5262972364711129e-04 -2.7371003840332575e-04 -2.9723448774140830e-04 -3.2356642136805998e-04 -3.5313577585615235e-04 -3.8645369199654642e-04 -4.2413089799869000e-04 -4.6690097851691286e-04 -5.1565002790226425e-04 -5.7145471416573913e-04 -6.3563151295993299e-04 -7.0980090148344346e-04 -7.9597177448531781e-04 -8.9665345882758408e-04 -1.0150057729888889e-03 -1.1550420970462879e-03 -1.3219071395055529e-03 -1.5222611992754809e-03 -1.7648181260075102e-03 -2.0611078930210338e-03 -2.4265714798323863e-03 -2.8821529178442557e-03 -3.4566409346394197e-03 -4.1901402389452449e-03 -5.1392118651705510e-03 -6.3843205887465027e-03 -8.0398710266076957e-03 -1.0264971133579928e-02 -1.3265208284488775e-02 -1.7251915366931908e-02 -2.2262386359894672e-02 -2.7599187838653675e-02 -3.0369000844913459e-02 -2.2248125344341719e-02 1.6167468336027724e-02 1.2056495155909332e-01 3.3329150525744267e-01 6.5695622379530816e-01 1.0000000000000000e+00 0.0000000000000000e+00 -1.0776182180193774e-05 -1.5892279131318238e-05 -1.8320713732567799e-05 -1.9380055582245187e-05 -1.9824440718071445e-05 -2.0024523054619945e-05 -2.0141452902239694e-05 -2.0238560946298954e-05 -2.0338744903504552e-05 -2.0449767594698456e-05 -2.0574187704186046e-05 -2.0712913617380731e-05 -2.0866381437968105e-05 -2.1034920571868344e-05 -2.1218860585331390e-05 -2.1418560682042065e-05 -2.1634417468644635e-05 -2.1866867177237276e-05 -2.2116386813939406e-05 -2.2383495392859478e-05 -2.2668755494149395e-05 -2.2972775139183393e-05 -2.3296209949002982e-05 -2.3639765597212171e-05 -2.4004200595376880e-05 -2.4390329422318890e-05 -2.4799025966722659e-05 -2.5231227257503956e-05 -2.5687937513289270e-05 -2.6170232587670371e-05 -2.6679264866653587e-05 -2.7216268618767588e-05 -2.7782565788644179e-05 -2.8379572285011115e-05 -2.9008804871463536e-05 -2.9671888747833012e-05 -3.0370565839783905e-05 -3.1106703800465915e-05 -3.1882305808048668e-05 -3.2699521323187364e-05 -3.3560657949545551e-05 -3.4468194455682733e-05 -3.5424795005246772e-05 -3.6433324744027610e-05 -3.7496866983224004e-05 -3.8618742183897492e-05 -3.9802528864005550e-05 -4.1052086582872483e-05 -4.2371581310595009e-05 -4.3765513574791925e-05 -4.5238749699647905e-05 -4.6796556378952503e-05 -4.8444638945045993e-05 -5.0189183916332295e-05 -5.2036906472749816e-05 -5.3995103414781154e-05 -5.6071712185461205e-05 -5.8275376797703797e-05 -6.0615521751932093e-05 -6.3102435032135742e-05 -6.5747361256367383e-05 -6.8562606357621284e-05 -7.1561655636920367e-05 -7.4759307253265440e-05 -7.8171823253505847e-05 -8.1817100594839783e-05 -8.5714865351150911e-05 -8.9886893906911572e-05 -9.4357265265189810e-05 -9.9152649218490195e-05 -1.0430263637771355e-04 -1.0984011733691025e-04 -1.1580171916956595e-04 -1.2222830873814063e-04 -1.2916557465228145e-04 -1.3666470249954797e-04 -1.4478316040887791e-04 -1.5358561489660849e-04 -1.6314500162669792e-04 -1.7354378188411135e-04 -1.8487542203224838e-04 -1.9724614054738478e-04 -2.1077697746643015e-04 -2.2560625504301242e-04 -2.4189251518666409e-04 -2.5981803929697066e-04 -2.7959308229560172e-04 -3.0146098740284301e-04 -3.2570439235290316e-04 -3.5265279417136632e-04 -3.8269181395359127e-04 -4.1627460053917335e-04 -4.5393593986847502e-04 -4.9630980770525447e-04 -5.4415133168217932e-04 -5.9836443408894664e-04 -6.6003684315921608e-04 -7.3048473035349534e-04 -8.1131001145781775e-04 -9.0447443428444733e-04 -1.0123960961877119e-03 -1.1380761727844987e-03 -1.2852666813130754e-03 -1.4586944651390733e-03 -1.6643628776548736e-03 -1.9099617924281660e-03 -2.2054299336078543e-03 -2.5637330731965065e-03 -3.0019501278181248e-03 -3.5427998895325007e-03 -4.2167961729263469e-03 -5.0652824063327868e-03 -6.1446282536281038e-03 -7.5317143830702891e-03 -9.3299631978374670e-03 -1.1671999476934860e-02 -1.4705110994132842e-02 -1.8517929288002524e-02 -2.2897287296916952e-02 -2.6654087423201370e-02 -2.6005629485968594e-02 -1.1322585883759263e-02 3.7649375997245396e-02 1.5383836480208274e-01 3.6953920045394534e-01 6.7763939265013318e-01 1.0000000000000000e+00 0.0000000000000000e+00 -1.3372897708165191e-05 -1.9654062756807626e-05 -2.2618706287925310e-05 -2.3907784564402364e-05 -2.4448606302209854e-05 -2.4693342149736266e-05 -2.4837536972938888e-05 -2.4957795348207780e-05 -2.5081804129192970e-05 -2.5218993888118847e-05 -2.5372519132480148e-05 -2.5543533726866508e-05 -2.5732608374901218e-05 -2.5940173361106990e-05 -2.6166650694679003e-05 -2.6412492617796070e-05 -2.6678193163140676e-05 -2.6964292328879502e-05 -2.7271378445501584e-05 -2.7600090289707785e-05 -2.7951119350268957e-05 -2.8325212333954009e-05 -2.8723173949805134e-05 -2.9145870025672535e-05 -2.9594230999401731e-05 -3.0069255779282587e-05 -3.0572015942279802e-05 -3.1103660275187441e-05 -3.1665419727946886e-05 -3.2258612865481165e-05 -3.2884651854759873e-05 -3.3545048976877158e-05 -3.4241423678565443e-05 -3.4975510250419455e-05 -3.5749166247636784e-05 -3.6564381718258182e-05 -3.7423289252996430e-05 -3.8328174907791073e-05 -3.9281490144143147e-05 -4.0285864964358023e-05 -4.1344122349782462e-05 -4.2459294049952832e-05 -4.3634637830090667e-05 -4.4873656408680661e-05 -4.6180118350903501e-05 -4.7558081102278181e-05 -4.9011916306113162e-05 -5.0546337659195858e-05 -5.2166431705282716e-05 -5.3877691967302650e-05 -5.5686056722444818e-05 -5.7597950753816615e-05 -5.9620331621965973e-05 -6.1760741161552180e-05 -6.4027362865689836e-05 -6.6429085761400962e-05 -6.8975575559586085e-05 -7.1677354172843802e-05 -7.4545888818536185e-05 -7.7593691882018096e-05 -8.0834432873119015e-05 -8.4283064265182767e-05 -8.7955963380756483e-05 -9.1871092577054450e-05 -9.6048180175556955e-05 -1.0050892522179396e-04 -1.0527722991871657e-04 -1.1037946402012485e-04 -1.1584476591868610e-04 -1.2170538618732898e-04 -1.2799708070849902e-04 -1.3475956165909654e-04 -1.4203701576394817e-04 -1.4987870112942995e-04 -1.5833963651643655e-04 -1.6748139953846110e-04 -1.7737305330894134e-04 -1.8809222517129001e-04 -1.9972636606254270e-04 -2.1237422474996263e-04 -2.2614757885076631e-04 -2.4117327449476222e-04 -2.5759563754894436e-04 -2.7557933261916103e-04 -2.9531276487541593e-04 -3.1701214401282367e-04 -3.4092635754406930e-04 -3.6734283602083735e-04 -3.9659464145672541e-04 -4.2906907202812047e-04 -4.6521815267898712e-04 -5.0557148273334799e-04 -5.5075204665700590e-04 -6.0149576844393301e-04 -6.5867581946576700e-04 -7.2333299746922476e-04 -7.9671390484719110e-04 -8.8031920338076683e-04 -9.7596496643996989e-04 -1.0858611611429024e-03 -1.2127126713837913e-03 -1.3598501636154887e-03 -1.5314007034318219e-03 -1.7325116243115226e-03 -1.9696461100621979e-03 -2.2509757862913698e-03 -2.5869049439984988e-03 -2.9907735353018310e-03 -3.4798022601099320e-03 -4.0763621924567771e-03 -4.8096686505431545e-03 -5.7179960968026912e-03 -6.8514269791919800e-03 -8.2747904326749746e-03 -1.0069231620059484e-02 -1.2327083325477521e-02 -1.5123808220603562e-02 -1.8421617340360495e-02 -2.1789234879120493e-02 -2.3679414434773349e-02 -1.9797901086519510e-02 -6.7747116196166784e-05 5.5237549488982643e-02 1.7579159491650351e-01 3.8807851013257577e-01 6.8424677515402132e-01 1.0000000000000000e+00 0.0000000000000000e+00 -1.5963999645446796e-05 -2.3411592295349241e-05 -2.6913419384736040e-05 -2.8432012079631425e-05 -2.9068483476823569e-05 -2.9357062373994689e-05 -2.9527892294602583e-05 -2.9670854582311311e-05 -2.9818362836790799e-05 -2.9981453364506919e-05 -3.0163833228312084e-05 -3.0366876120968272e-05 -3.0591273517766086e-05 -3.0837549489268400e-05 -3.1106214803143673e-05 -3.1397812573235231e-05 -3.1712932630182010e-05 -3.2052217178396581e-05 -3.2416364167898374e-05 -3.2806130194947634e-05 -3.3222333437985401e-05 -3.3665856785861866e-05 -3.4137651250199813e-05 -3.4638739739934262e-05 -3.5170221233072298e-05 -3.5733275330402491e-05 -3.6329167177159205e-05 -3.6959252798105579e-05 -3.7624984941895720e-05 -3.8327919510972966e-05 -3.9069722589494656e-05 -3.9852178062351990e-05 -4.0677195874966654e-05 -4.1546821049492160e-05 -4.2463243564235244e-05 -4.3428809141190490e-05 -4.4446030973641716e-05 -4.5517602501886874e-05 -4.6646411419949358e-05 -4.7835555070791365e-05 -4.9088357304549630e-05 -5.0408386873042922e-05 -5.1799477550021076e-05 -5.3265750265573835e-05 -5.4811637508025781e-05 -5.6441910159538168e-05 -5.8161706966535471e-05 -5.9976567001431053e-05 -6.1892465559948919e-05 -6.3915853871862363e-05 -6.6053702954692136e-05 -6.8313552083754291e-05 -7.0703562571236913e-05 -7.3232577595601521e-05 -7.5910188732109297e-05 -7.8746809898313786e-05 -8.1753759727337194e-05 -8.4943353627552211e-05 -8.8329006792216882e-05 -9.1925349453513542e-05 -9.5748356027700911e-05 -9.9815490264508792e-05 -1.0414586871758657e-04 -1.0876044494592164e-04 -1.1368221731841462e-04 -1.1893646407592253e-04 -1.2455100988543487e-04 -1.3055652849037168e-04 -1.3698688683913581e-04 -1.4387953737757600e-04 -1.5127596638295283e-04 -1.5922220720945827e-04 -1.6776942894194925e-04 -1.7697461340812485e-04 -1.8690133587303924e-04 -1.9762066702314242e-04 -2.0921221747156237e-04 -2.2176535118784184e-04 -2.3538059932466372e-04 -2.5017131108244316e-04 -2.6626558634303436e-04 -2.8380854619266188e-04 -3.0296500929538210e-04 -3.2392265515767559e-04 -3.4689577449757019e-04 -3.7212973244926683e-04 -3.9990629894462801e-04 -4.3055003604687011e-04 -4.6443598090578251e-04 -5.0199892437344891e-04 -5.4374466004797339e-04 -5.9026367744362263e-04 -6.4224790263428186e-04 -7.0051125294446237e-04 -7.6601498549275161e-04 -8.3989910163879890e-04 -9.2352143435263585e-04 -1.0185065241769362e-03 -1.1268070245022800e-03 -1.2507812094596804e-03 -1.3932912536086012e-03 -1.5578283994773167e-03 -1.7486730182859891e-03 -1.9711000180620561e-03 -2.2316431825724022e-03 -2.5384358977032888e-03 -2.9016502777680945e-03 -3.3340615160885653e-03 -3.8517680201486295e-03 -4.4750970671243728e-03 -5.2297112527200287e-03 -6.1478784973518722e-03 -7.2697088979863950e-03 -8.6436934789342872e-03 -1.0324509660375901e-02 -1.2362094213846573e-02 -1.4764915506306070e-02 -1.7391467323001154e-02 -1.9656338991946094e-02 -1.9805776695390288e-02 -1.3348578992280046e-02 9.7139697253598618e-03 6.8106936326615797e-02 1.8893181748071997e-01 3.9597955692759557e-01 6.8401323983900586e-01 1.0000000000000000e+00 0.0000000000000000e+00 -1.8544494119347124e-05 -2.7155800977151630e-05 -3.1194088600183966e-05 -3.2941759984078058e-05 -3.3673364897955453e-05 -3.4005235859273658e-05 -3.4202190921313686e-05 -3.4367411452851043e-05 -3.4538023514394113e-05 -3.4726642640268195e-05 -3.4937503874998679e-05 -3.5172182539213245e-05 -3.5431478767571886e-05 -3.5716002682260347e-05 -3.6026348773978852e-05 -3.6363147464623361e-05 -3.6727081511938152e-05 -3.7118892693458806e-05 -3.7539385927401257e-05 -3.7989432816824459e-05 -3.8469975176981084e-05 -3.8982028743942624e-05 -3.9526687186931091e-05 -4.0105126507075862e-05 -4.0718609845577648e-05 -4.1368492688095116e-05 -4.2056228482654100e-05 -4.2783374752932449e-05 -4.3551599808773555e-05 -4.4362690104594177e-05 -4.5218558241859998e-05 -4.6121251630186598e-05 -4.7072961897970217e-05 -4.8076035181215029e-05 -4.9132983376309958e-05 -5.0246496391572737e-05 -5.1419455465425375e-05 -5.2654947709878558e-05 -5.3956282069315065e-05 -5.5327006816071180e-05 -5.6770928647777309e-05 -5.8292133519452259e-05 -5.9895009475897492e-05 -6.1584271786480364e-05 -6.3364990599382455e-05 -6.5242621289751399e-05 -6.7223037788507691e-05 -6.9312569326532671e-05 -7.1518041034416522e-05 -7.3846818754059204e-05 -7.6306858467381489e-05 -7.8906760963669850e-05 -8.1655832514602100e-05 -8.4564152270464791e-05 -8.7642647049195120e-05 -9.0903174402305281e-05 -9.4358615161143670e-05 -9.8022976778526787e-05 -1.0191150874863352e-04 -1.0604083158477119e-04 -1.1042908130022353e-04 -1.1509607167435895e-04 -1.2006347666596819e-04 -1.2535503559608146e-04 -1.3099678442035149e-04 -1.3701731711920491e-04 -1.4344808160463070e-04 -1.5032371503644165e-04 -1.5768242455619123e-04 -1.6556642075933056e-04 -1.7402241216801851e-04 -1.8310217004800729e-04 -1.9286317494362926e-04 -2.0336935886920089e-04 -2.1469195931075305e-04 -2.2691050358371689e-04 -2.4011394593495132e-04 -2.5440198490791246e-04 -2.6988659376411789e-04 -2.8669380249468830e-04 -3.0496577783548469e-04 -3.2486325822550093e-04 -3.4656841290189546e-04 -3.7028820849730794e-04 -3.9625838459263430e-04 -4.2474816302093304e-04 -4.5606584426591154e-04 -4.9056547934749138e-04 -5.2865485013148771e-04 -5.7080504706757333e-04 -6.1756200347210693e-04 -6.6956043481141304e-04 -7.2754074450800184e-04 -7.9236960003642725e-04 -8.6506506543953632e-04 -9.4682740879499863e-04 -1.0390769958217841e-03 -1.1435010543557008e-03 -1.2621115679721329e-03 -1.3973171472191565e-03 -1.5520124627355881e-03 -1.7296897229167421e-03 -1.9345777361457286e-03 -2.1718152911647547e-03 -2.4476668040291465e-03 -2.7697891471907170e-03 -3.1475587430123977e-03 -3.5924662072556327e-03 -4.1185797668177107e-03 -4.7430636238395161e-03 -5.4867030091638926e-03 -6.3743087816684196e-03 -7.4346836015095029e-03 -8.6993342299220688e-03 -1.0197737137122695e-02 -1.1943067233349716e-02 -1.3891518055487682e-02 -1.5830422070883931e-02 -1.7086023557949939e-02 -1.5820605842012794e-02 -7.5453181504663959e-03 1.7432292990864552e-02 7.6862883829100434e-02 1.9615481100884227e-01 3.9821170770961550e-01 6.8110953579374134e-01 1.0000000000000000e+00 0.0000000000000000e+00 -2.1112145301041178e-05 -3.0882353389257405e-05 -3.5455267395241832e-05 -3.7431268089907127e-05 -3.8257546940019455e-05 -3.8632295092224255e-05 -3.8854959910540809e-05 -3.9042023094683097e-05 -3.9235322143169019e-05 -3.9449043727221105e-05 -3.9687939727975389e-05 -3.9953776439816496e-05 -4.0247453954988721e-05 -4.0569661780816003e-05 -4.0921073025166477e-05 -4.1302401314678895e-05 -4.1714418778353115e-05 -4.2157963435464115e-05 -4.2633943847988586e-05 -4.3143343163821906e-05 -4.3687223142339740e-05 -4.4266728382463169e-05 -4.4883090886247337e-05 -4.5537635031295474e-05 -4.6231782964328712e-05 -4.6967060417002509e-05 -4.7745102996292523e-05 -4.8567663052324089e-05 -4.9436617210315218e-05 -5.0353974588348579e-05 -5.1321885698655882e-05 -5.2342652085805628e-05 -5.3418736827107747e-05 -5.4552776017860399e-05 -5.5747591300998230e-05 -5.7006203481681296e-05 -5.8331847339937949e-05 -5.9727987832613146e-05 -6.1198337855475170e-05 -6.2746877655717103e-05 -6.4377875984542686e-05 -6.6095913198229041e-05 -6.7905906617504996e-05 -6.9813138419112073e-05 -7.1823286244460758e-05 -7.3942456746116925e-05 -7.6177222451405684e-05 -7.8534662411517542e-05 -8.1022407041007207e-05 -8.3648687513511056e-05 -8.6422390231712714e-05 -8.9353117103127078e-05 -9.2451252386294535e-05 -9.5728036781097267e-05 -9.9195649520390436e-05 -1.0286729953200349e-04 -1.0675732697138129e-04 -1.1088131641629912e-04 -1.1525622306235034e-04 -1.1990051362640748e-04 -1.2483432410094987e-04 -1.3007963665957590e-04 -1.3566047811611190e-04 -1.4160314284227259e-04 -1.4793644380462452e-04 -1.5469199586854435e-04 -1.6190453583339153e-04 -1.6961228443432115e-04 -1.7785735677726039e-04 -1.8668622873041892e-04 -1.9615026768180890e-04 -2.0630633752563647e-04 -2.1721748984015655e-04 -2.2895375532555398e-04 -2.4159305180148429e-04 -2.5522222814502863e-04 -2.6993826729935231e-04 -2.8584967552207054e-04 -3.0307809029059534e-04 -3.2176014625694219e-04 -3.4204964614489381e-04 -3.6412009183281067e-04 -3.8816764272696033e-04 -4.1441458376589255e-04 -4.4311340160323284e-04 -4.7455158709641709e-04 -5.0905730938726628e-04 -5.4700613967866105e-04 -5.8882904014795801e-04 -6.3502188157852865e-04 -6.8615681515294053e-04 -7.4289589719957433e-04 -8.06007455