<?xml version='1.0' encoding='utf-8'?>
<VTKFile type="UnstructuredGrid" version="0.1" byte_order="LittleEndian">
  <UnstructuredGrid>
    <Piece NumberOfPoints="16384" NumberOfCells="16129">
      <PointData>
        <DataArray type="Float64" Name="velocity_u" NumberOfComponents="1">0.0000000000000000e+00 0.0000000000000000e+00 0.0000000000000000e+00 0.0000000000000000e+00 0.0000000000000000e+00 0.0000000000000000e+00 0.0000000000000000e+00 0.0000000000000000e+00 0.0000000000000000e+00 0.0000000000000000e+00 0.0000000000000000e+00 0.0000000000000000e+00 0.0000000000000000e+00 0.0000000000000000e+00 0.0000000000000000e+00 0.0000000000000000e+00 0.0000000000000000e+00 0.0000000000000000e+00 0.0000000000000000e+00 0.0000000000000000e+00 0.0000000000000000e+00 0.0000000000000000e+00 0.0000000000000000e+00 0.0000000000000000e+00 0.0000000000000000e+00 0.0000000000000000e+00 0.0000000000000000e+00 0.0000000000000000e+00 0.0000000000000000e+00 0.0000000000000000e+00 0.0000000000000000e+00 0.0000000000000000e+00 0.0000000000000000e+00 0.0000000000000000e+00 0.0000000000000000e+00 0.0000000000000000e+00 0.0000000000000000e+00 0.0000000000000000e+00 0.0000000000000000e+00 0.0000000000000000e+00 0.0000000000000000e+00 0.0000000000000000e+00 0.0000000000000000e+00 0.0000000000000000e+00 0.0000000000000000e+00 0.0000000000000000e+00 0.0000000000000000e+00 0.0000000000000000e+00 0.0000000000000000e+00 0.0000000000000000e+00 0.0000000000000000e+00 0.0000000000000000e+00 0.0000000000000000e+00 0.0000000000000000e+00 0.0000000000000000e+00 0.0000000000000000e+00 0.0000000000000000e+00 0.0000000000000000e+00 0.0000000000000000e+00 0.0000000000000000e+00 0.0000000000000000e+00 0.0000000000000000e+00 0.0000000000000000e+00 0.0000000000000000e+00 0.0000000000000000e+00 0.0000000000000000e+00 0.0000000000000000e+00 0.0000000000000000e+00 0.0000000000000000e+00 0.0000000000000000e+00 0.0000000000000000e+00 0.0000000000000000e+00 0.0000000000000000e+00 0.0000000000000000e+00 0.0000000000000000e+00 0.0000000000000000e+00 0.0000000000000000e+00 0.0000000000000000e+00 0.0000000000000000e+00 0.0000000000000000e+00 0.0000000000000000e+00 0.0000000000000000e+00 0.0000000000000000e+00 0.0000000000000000e+00 0.0000000000000000e+00 0.0000000000000000e+00 0.0000000000000000e+00 0.0000000000000000e+00 0.0000000000000000e+00 0.0000000000000000e+00 0.0000000000000000e+00 0.0000000000000000e+00 0.0000000000000000e+00 0.0000000000000000e+00 0.0000000000000000e+00 0.0000000000000000e+00 0.0000000000000000e+00 0.0000000000000000e+00 0.0000000000000000e+00 0.0000000000000000e+00 0.0000000000000000e+00 0.0000000000000000e+00 0.0000000000000000e+00 0.0000000000000000e+00 0.0000000000000000e+00 0.0000000000000000e+00 0.0000000000000000e+00 0.0000000000000000e+00 0.0000000000000000e+00 0.0000000000000000e+00 0.0000000000000000e+00 0.0000000000000000e+00 0.0000000000000000e+00 0.0000000000000000e+00 0.0000000000000000e+00 0.0000000000000000e+00 0.0000000000000000e+00 0.0000000000000000e+00 0.0000000000000000e+00 0.0000000000000000e+00 0.0000000000000000e+00 0.0000000000000000e+00 0.0000000000000000e+00 0.0000000000000000e+00 0.0000000000000000e+00 0.0000000000000000e+00 0.0000000000000000e+00 1.0000000000000000e+00 0.0000000000000000e+00 -5.7845561723275660e-07 -6.4463809068397290e-07 -6.5587279955929337e-07 -6.5862399602006827e-07 -6.6047539680223843e-07 -6.6257683863687344e-07 -6.6509399177759436e-07 -6.6805207888172786e-07 -6.7145861421096230e-07 -6.7532004821576037e-07 -6.7964375505455785e-07 -6.8443818349136242e-07 -6.8971283086623380e-07 -6.9547823256576165e-07 -7.0174598715471517e-07 -7.0852880687121242e-07 -7.1584057175000574e-07 -7.2369637438514761e-07 -7.3211256300004266e-07 -7.4110680042504768e-07 -7.5069814448133527e-07 -7.6090713544729855e-07 -7.7175587380637429e-07 -7.8326809147974735e-07 -7.9546923878346488e-07 -8.0838660293110590e-07 -8.2204944733411028e-07 -8.3648914582036842e-07 -8.5173930289500814e-07 -8.6783588121387752e-07 -8.8481736352392108e-07 -9.0272494942211075e-07 -9.2160276153478521e-07 -9.4149804524131864e-07 -9.6246137996825255e-07 -9.8454693232492570e-07 -1.0078127529539067e-06 -1.0323210868924211e-06 -1.0581386790460783e-06 -1.0853371013401242e-06 -1.1139931462389418e-06 -1.1441892924516125e-06 -1.1760142019251542e-06 -1.2095632190820761e-06 -1.2449389024510921e-06 -1.2822516451501248e-06 -1.3216203956929760e-06 -1.3631734382041298e-06 -1.4070492114218628e-06 -1.4533972124154732e-06 -1.5023790432076985e-06 -1.5541695924223168e-06 -1.6089583010335323e-06 -1.6669505192470144e-06 -1.7283690434715006e-06 -1.7934559016298811e-06 -1.8624743555329859e-06 -1.9357110682674433e-06 -2.0134784879838600e-06 -2.0961175737851778e-06 -2.1840009175040130e-06 -2.2775362199453557e-06 -2.3771701376228134e-06 -2.4833926514716304e-06 -2.5967421010840043e-06 -2.7178108896738008e-06 -2.8472518552372685e-06 -2.9857854858583510e-06 -3.1342082547652622e-06 -3.2934022161662955e-06 -3.4643459117410338e-06 -3.6481268192874667e-06 -3.8459557662064041e-06 -4.0591836388726034e-06 -4.2893206158628679e-06 -4.5380584052625586e-06 -4.8072962663445081e-06 -5.0991714860114971e-06 -5.4160948547213357e-06 -5.7607921723975464e-06 -6.1363534191255344e-06 -6.5462911172523321e-06 -6.9946092539597785e-06 -7.4858850743042403e-06 -8.0253672804673548e-06 -8.6190942889785753e-06 -9.2740363740452871e-06 -9.9982675038462986e-06 -1.0801175010495141e-05 -1.1693716312369088e-05 -1.2688733991154248e-05 -1.3801345272344060e-05 -1.5049426987863941e-05 -1.6454222248702991e-05 -1.8041104041584591e-05 -1.9840544028174228e-05 -2.1889350506900857e-05 -2.4232261871267520e-05 -2.6924015564285804e-05 -3.0032058853006839e-05 -3.3640133485518371e-05 -3.7853064918500275e-05 -4.2803232937595153e-05 -4.8659417834613374e-05 -5.5639050571820820e-05 -6.4025417936619202e-05 -7.4192199042625369e-05 -8.6639046883937306e-05 -1.0204414946975659e-04 -1.2134347283913871e-04 -1.4585296852715030e-04 -1.7746188549051079e-04 -2.1894741687331022e-04 -2.7450369578341173e-04 -3.5066465377576648e-04 -4.5798357972957367e-04 -6.1424064290219735e-04 -8.5090238671553823e-04 -1.2268354016261654e-03 -1.8585128141474219e-03 -2.9850597755702920e-03 -5.0781338634334934e-03 -8.7752926648120011e-03 -1.2588398951036504e-02 4.7509057966271667e-03 1.8411536585111105e-01 1.0000000000000000e+00 0.0000000000000000e+00 -1.2223533099924618e-06 -1.3566182226811446e-06 -1.3795951534585912e-06 -1.3853664080113863e-06 -1.3892885866485764e-06 -1.3937233619719835e-06 -1.3990238643758034e-06 -1.4052479630422213e-06 -1.4124134816543731e-06 -1.4205347501199452e-06 -1.4296275622951618e-06 -1.4397097716810515e-06 -1.4508013547487428e-06 -1.4629244544281188e-06 -1.4761034581454476e-06 -1.4903650952044759e-06 -1.5057385336590331e-06 -1.5222554750281094e-06 -1.5399502625456043e-06 -1.5588600155814055e-06 -1.5790247846046997e-06 -1.6004877107078793e-06 -1.6232951857957447e-06 -1.6474970299227899e-06 -1.6731467046211756e-06 -1.7003015590811058e-06 -1.7290230857838037e-06 -1.7593771707392120e-06 -1.7914343542230403e-06 -1.8252701344282643e-06 -1.8609653267560979e-06 -1.8986064586329094e-06 -1.9382861753377087e-06 -1.9801036628616034e-06 -2.0241651196426992e-06 -2.0705842949796577e-06 -2.1194830769837129e-06 -2.1709921079443713e-06 -2.2252514420182522e-06 -2.2824112899708460e-06 -2.3426328720244429e-06 -2.4060893499150479e-06 -2.4729668034449310e-06 -2.5434652716700812e-06 -2.6177999239729346e-06 -2.6962023982673309e-06 -2.7789222803262747e-06 -2.8662286926240237e-06 -2.9584120247535314e-06 -3.0557858782696998e-06 -3.1586892539912155e-06 -3.2674889508488519e-06 -3.3825821751881589e-06 -3.5043994476359033e-06 -3.6334079074492856e-06 -3.7701150249225586e-06 -3.9150726820159410e-06 -4.0688816677912328e-06 -4.2321967429848928e-06 -4.4057323959962504e-06 -4.5902693028813519e-06 -4.7866615179305956e-06 -4.9958445664831795e-06 -5.2188446649019928e-06 -5.4567891787777909e-06 -5.7109183799743942e-06 -5.9825987312943650e-06 -6.2733380922165417e-06 -6.5848031597862238e-06 -6.9188393314134997e-06 -7.2774933312996623e-06 -7.6630392374510307e-06 -8.0780085745910591e-06 -8.5252249856690303e-06 -9.0078441561104176e-06 -9.5294001429803022e-06 -1.0093859491283185e-05 -1.0705684400352455e-05 -1.1369906380528055e-05 -1.2092212584587739e-05 -1.2879047683077867e-05 -1.3737734398785228e-05 -1.4676616264209200e-05 -1.5705227373872198e-05 -1.6834495364103156e-05 -1.8076985059909521e-05 -1.9447191848116971e-05 -2.0961896594674320e-05 -2.2640597322409972e-05 -2.4506036631836655e-05 -2.6584849232449948e-05 -2.8908361616206934e-05 -3.1513585242750584e-05 -3.4444457006260909e-05 -3.7753398847392968e-05 -4.1503292331661006e-05 -4.5769995705333094e-05 -5.0645576976900543e-05 -5.6242501479485604e-05 -6.2699101720063718e-05 -7.0186787639208394e-05 -7.8919646843243080e-05 -8.9167362329565841e-05 -1.0127279172395464e-04 -1.1567618752766865e-04 -1.3294901277092374e-04 -1.5384183605116791e-04 -1.7935324033005272e-04 -2.1083067258464909e-04 -2.5012082085307968e-04 -2.9979848884354983e-04 -3.6352289052848398e-04 -4.4660626246612864e-04 -5.5694653354855365e-04 -7.0660389795431603e-04 -9.1455432114551679e-04 -1.2116659411964706e-03 -1.6499885246789563e-03 -2.3204429709793133e-03 -3.3856707155165353e-03 -5.1300162751637384e-03 -7.9548107000622318e-03 -1.1740085205769562e-02 -1.1225509973637046e-02 2.8096597295874826e-02 2.5899513234480054e-01 1.0000000000000000e+00 0.0000000000000000e+00 -1.8759083429550799e-06 -2.0786013701393594e-06 -2.1133010692961203e-06 -2.1220952934425410e-06 -2.1281117358971840e-06 -2.1349104072794360e-06 -2.1430288430363443e-06 -2.1525577945737059e-06 -2.1635259800394086e-06 -2.1759559992484904e-06 -2.1898722937134230e-06 -2.2053022730689086e-06 -2.2222765207435550e-06 -2.2408289125664830e-06 -2.2609967506570954e-06 -2.2828209059773281e-06 -2.3063459594142362e-06 -2.3316203509864099e-06 -2.3586965557742485e-06 -2.3876312928354331e-06 -2.4184857547672543e-06 -2.4513258450631457e-06 -2.4862224290447419e-06 -2.5232516190241625e-06 -2.5624951038113362e-06 -2.6040405084363990e-06 -2.6479817623031518e-06 -2.6944194773324391e-06 -2.7434613657129718e-06 -2.7952227247752369e-06 -2.8498269840041418e-06 -2.9074062863495684e-06 -2.9681020925956302e-06 -3.0320658334491225e-06 -3.0994596424024199e-06 -3.1704571721730175e-06 -3.2452444717190068e-06 -3.3240209193218006e-06 -3.4070002477456942e-06 -3.4944117016454822e-06 -3.5865013231875125e-06 -3.6835333296895234e-06 -3.7857915793490516e-06 -3.8935811821096704e-06 -4.0072303199854584e-06 -4.1270922821426933e-06 -4.2535476789459753e-06 -4.3870068394422982e-06 -4.5279124637605088e-06 -4.6767425973003916e-06 -4.8340139279316262e-06 -5.0002853918331207e-06 -5.1761621498123159e-06 -5.3623000549526612e-06 -5.5594106798116947e-06 -5.7682668879515578e-06 -5.9897089691020703e-06 -6.2246514831958308e-06 -6.4740909957045815e-06 -6.7391147890609666e-06 -7.0209105833028913e-06 -7.3207774139950761e-06 -7.6401379382839654e-06 -7.9805523901210340e-06 -8.3437343075281313e-06 -8.7315682507449665e-06 -9.1461299427871943e-06 -9.5897092976126208e-06 -1.0064836670737412e-05 -1.0574312716286211e-05 -1.1121242527961143e-05 -1.1709074920329241e-05 -1.2341647647499885e-05 -1.3023239434445729e-05 -1.3758630082285120e-05 -1.4553170227040059e-05 -1.5412862429525107e-05 -1.6344455589908083e-05 -1.7355555341127067e-05 -1.8454753595483030e-05 -1.9651780830897673e-05 -2.0957685693743114e-05 -2.2385047915109624e-05 -2.3948231598747099e-05 -2.5663687181116462e-05 -2.7550312948790423e-05 -2.9629890256803285e-05 -3.1927609532226607e-05 -3.4472708252465280e-05 -3.7299248783945616e-05 -4.0447072060586177e-05 -4.3962972479772135e-05 -4.7902152911244610e-05 -5.2330037707635065e-05 -5.7324545859011416e-05 -6.2978958902598173e-05 -6.9405564082066705e-05 -7.6740316577037033e-05 -8.5148851373814498e-05 -9.4834298221446446e-05 -1.0604752965660361e-04 -1.1910072422858847e-04 -1.3438549334954405e-04 -1.5239736382094695e-04 -1.7376921859552631e-04 -1.9931752380935195e-04 -2.3010706031105382e-04 -2.6754282851743154e-04 -3.1350247696278752e-04 -3.7053017377719217e-04 -4.4212527595669974e-04 -5.3317994868573592e-04 -6.5065527148286601e-04 -8.0464644444695570e-04 -1.0100942049942633e-03 -1.2895850128731416e-03 -1.6779958162735367e-03 -2.2302066990479473e-03 -3.0334463457828411e-03 -4.2237696295041056e-03 -5.9880489701807788e-03 -8.4241428440432996e-03 -1.0553784042522954e-02 -5.0371843027433322e-03 4.5426458565185596e-02 2.8390266511064099e-01 1.0000000000000000e+00 0.0000000000000000e+00 -2.5297840042534711e-06 -2.8009152705325426e-06 -2.8473030319609609e-06 -2.8590959989881372e-06 -2.8671937984477374e-06 -2.8763473498377330e-06 -2.8872746062996208e-06 -2.9000978057639009e-06 -2.9148561811534460e-06 -2.9315805088586085e-06 -2.9503038339843914e-06 -2.9710630738637038e-06 -2.9938993597249714e-06 -3.0188582282125435e-06 -3.0459898054225563e-06 -3.0753489900151077e-06 -3.1069956395314878e-06 -3.1409947791368156e-06 -3.1774168494531799e-06 -3.2163379900949803e-06 -3.2578403421207284e-06 -3.3020123625035302e-06 -3.3489491655401675e-06 -3.3987529114669069e-06 -3.4515332433655505e-06 -3.5074077527835997e-06 -3.5665024616552232e-06 -3.6289523373835087e-06 -3.6949018739086820e-06 -3.7645057517256645e-06 -3.8379295569899573e-06 -3.9153505366404560e-06 -3.9969583994054675e-06 -4.0829562003700069e-06 -4.1735613325372239e-06 -4.2690066120639603e-06 -4.3695414375564283e-06 -4.4754330403709987e-06 -4.5869678728591631e-06 -4.7044531590935104e-06 -4.8282185861380283e-06 -4.9586181131833253e-06 -5.0960319318230796e-06 -5.2408686510012663e-06 -5.3935677463205706e-06 -5.5546022521581591e-06 -5.7244816782633153e-06 -5.9037552024101495e-06 -6.0930152283334723e-06 -6.2929013501817372e-06 -6.5041047121585055e-06 -6.7273727918376489e-06 -6.9635147210993670e-06 -7.2134072600040326e-06 -7.4780014526003490e-06 -7.7583299684027373e-06 -8.0555152386352093e-06 -8.3707785927694225e-06 -8.7054505509882608e-06 -9.0609823335394019e-06 -9.4389587000262617e-06 -9.8411123857269550e-06 -1.0269340434490747e-05 -1.0725722624001974e-05 -1.1212542189142704e-05 -1.1732309253003277e-05 -1.2287787508262546e-05 -1.2882024602677903e-05 -1.3518386646746575e-05 -1.4200597514143571e-05 -1.4932783877441868e-05 -1.5719526912586327e-05 -1.6565921602177739e-05 -1.7477644957062274e-05 -1.8461034946157118e-05 -1.9523181998673499e-05 -2.0672035022803239e-05 -2.1916524634550136e-05 -2.3266707256755030e-05 -2.4733934098194521e-05 -2.6331049371878770e-05 -2.8072623606828785e-05 -2.9975229862329844e-05 -3.2057771796037936e-05 -3.4341873976897921e-05 -3.6852348229495497e-05 -3.9617753873984252e-05 -4.2671073185131321e-05 -4.6050528558195389e-05 -4.9800576278562810e-05 -5.3973121326298556e-05 -5.8629008882613582e-05 -6.3839865150972939e-05 -6.9690382775912114e-05 -7.6281174037261758e-05 -8.3732353927012837e-05 -9.2188069713644192e-05 -1.0182226540866101e-04 -1.1284606876690905e-04 -1.2551732936790945e-04 -1.4015303183193933e-04 -1.5714558404514672e-04 -1.7698437852559508e-04 -2.0028459952382247e-04 -2.2782608507456250e-04 -2.6060629201593528e-04 -2.9991325958966987e-04 -3.4742724779391471e-04 -4.0536396146393467e-04 -4.7667876474245363e-04 -5.6536130006728765e-04 -6.7686538557600354e-04 -8.1874276485574765e-04 -1.0015848360140642e-03 -1.2404270278933169e-03 -1.5568328227232487e-03 -1.9819170616782881e-03 -2.5604472089699607e-03 -3.3552624971190281e-03 -4.4467690338405187e-03 -5.9003217364711567e-03 -7.5637556081100364e-03 -8.0037377199150914e-03 6.8089935786550849e-04 5.5175921707828507e-02 2.9207353350689330e-01 1.0000000000000000e+00 0.0000000000000000e+00 -3.1822291829150196e-06 -3.5216698811937817e-06 -3.5797141761647974e-06 -3.5944855248182987e-06 -3.6046463739064503e-06 -3.6161360382867279e-06 -3.6298512238775261e-06 -3.6459447012195966e-06 -3.6644657406863619e-06 -3.6854530460194833e-06 -3.7089481053005570e-06 -3.7349972099286143e-06 -3.7636519056632645e-06 -3.7949692410389091e-06 -3.8290119910266909e-06 -3.8658488778953643e-06 -3.9055548072001746e-06 -3.9482111421367710e-06 -3.9939060246466036e-06 -4.0427347295725353e-06 -4.0948000346924554e-06 -4.1502126094462085e-06 -4.2090914446729278e-06 -4.2715643400971586e-06 -4.3377684418853963e-06 -4.4078508113581604e-06 -4.4819690247741457e-06 -4.5602918307860436e-06 -4.6429998913840778e-06 -4.7302866019963973e-06 -4.8223589657121564e-06 -4.9194385154299293e-06 -5.0217623151087918e-06 -5.1295840786568411e-06 -5.2431754113317361e-06 -5.3628271492773015e-06 -5.4888507910886005e-06 -5.6215800594445071e-06 -5.7613726389768235e-06 -5.9086120952797818e-06 -6.0637099489338591e-06 -6.2271079094924394e-06 -6.3992803317292240e-06 -6.5807369588528444e-06 -6.7720259589113296e-06 -6.9737372276420242e-06 -7.1865059804138144e-06 -7.4110167233608687e-06 -7.6480076824885313e-06 -7.8982757012668544e-06 -8.1626816085562541e-06 -8.4421561398840589e-06 -8.7377065499311460e-06 -9.0504239983812146e-06 -9.3814917215249722e-06 -9.7321940555408618e-06 -1.0103926501706274e-05 -1.0498207040903822e-05 -1.0916688805222514e-05 -1.1361174194166431e-05 -1.1833630662287603e-05 -1.2336208514751896e-05 -1.2871260982335397e-05 -1.3441366781120460e-05 -1.4049355505904314e-05 -1.4698336413128847e-05 -1.5391731146112765e-05 -1.6133310852223082e-05 -1.6927238284870502e-05 -1.7778115821311927e-05 -1.8691040461313835e-05 -1.9671666797011054e-05 -2.0726279124482206e-05 -2.1861874389237332e-05 -2.3086258023340109e-05 -2.4408154792765920e-05 -2.5837337089572835e-05 -2.7384773942518001e-05 -2.9062804858443016e-05 -3.0885343145630908e-05 -3.2868114164646931e-05 -3.5028935427418926e-05 -3.7388047208322370e-05 -3.9968504040947104e-05 -4.2796639720104284e-05 -4.5902621706539530e-05 -4.9321114818446354e-05 -5.3092078752641790e-05 -5.7261730265143975e-05 -6.1883709219852934e-05 -6.7020497954525845e-05 -7.2745156765600510e-05 -7.9143456599125965e-05 -8.6316513359796721e-05 -9.4384058462246447e-05 -1.0348852208335289e-04 -1.1380016123816090e-04 -1.2552353798927948e-04 -1.3890575477062836e-04 -1.5424699339775175e-04 -1.7191409323322838e-04 -1.9235816848920404e-04 -2.1613763538166881e-04 -2.4394853605946745e-04 -2.7666477846145722e-04 -3.1539195190075271e-04 -3.6153985323570737e-04 -4.1692096077017017e-04 -4.8388506972019856e-04 -5.6550445964019633e-04 -6.6582963145037652e-04 -7.9024296761706463e-04 -9.4594605995350757e-04 -1.1426232129318290e-03 -1.3933203277918071e-03 -1.7155418861432570e-03 -2.1324374038665514e-03 -2.6735484646053407e-03 -3.3733359060899703e-03 -4.2611305168724295e-03 -5.3157786554345323e-03 -6.2556420716883996e-03 -5.5093168230705408e-03 4.7705521243782524e-03 6.0330256016904046e-02 2.9493879739474960e-01 1.0000000000000000e+00 0.0000000000000000e+00 -3.8326435159960497e-06 -4.2401886236914631e-06 -4.3098506953003956e-06 -4.3275812294376681e-06 -4.3397851675986994e-06 -4.3535877243701433e-06 -4.3700637405408069e-06 -4.3893960845662852e-06 -4.4116437316353388e-06 -4.4368530650851541e-06 -4.4650738165861922e-06 -4.4963614697574598e-06 -4.5307777976067336e-06 -4.5683911518037732e-06 -4.6092767185114966e-06 -4.6535167785404537e-06 -4.7012009988938218e-06 -4.7524267752760885e-06 -4.8072996218062321e-06 -4.8659335872191726e-06 -4.9284516863183012e-06 -4.9949863613800091e-06 -5.0656799996694707e-06 -5.1406855162470763e-06 -5.2201669875230549e-06 -5.3043003220208703e-06 -5.3932739803120102e-06 -5.4872897731506711e-06 -5.5865637502703501e-06 -5.6913271629400178e-06 -5.8018274823614142e-06 -5.9183294901967774e-06 -6.0411164847688024e-06 -6.1704916287643559e-06 -6.3067794228250080e-06 -6.4503272811019684e-06 -6.6015072249611319e-06 -6.7607177470412459e-06 -6.9283858801098196e-06 -7.1049694588833763e-06 -7.2909595596652949e-06 -7.4868831541754704e-06 -7.6933060499718533e-06 -7.9108361550463561e-06 -8.1401270490600982e-06 -8.3818818570776110e-06 -8.6368574964656422e-06 -8.9058693996523104e-06 -9.1897967593207293e-06 -9.4895882902978662e-06 -9.8062685491163338e-06 -1.0140944940331567e-05 -1.0494815536654494e-05 -1.0869177758701527e-05 -1.1265437949946541e-05 -1.1685121993910637e-05 -1.2129887200665448e-05 -1.2601535625557867e-05 -1.3102028905478108e-05 -1.3633504781227581e-05 -1.4198295631354046e-05 -1.4798949352629762e-05 -1.5438252821803749e-05 -1.6119258220312350e-05 -1.6845312720592089e-05 -1.7620092136573040e-05 -1.8447639049134053e-05 -1.9332405937917934e-05 -2.0279304137896579e-05 -2.1293759680450159e-05 -2.2381777072708217e-05 -2.3550012141025452e-05 -2.4805855458293576e-05 -2.6157528258993319e-05 -2.7614192896606827e-05 -2.9186080221773243e-05 -3.0884636964720001e-05 -3.2722696817545413e-05 -3.4714679356842062e-05 -3.6876821907874263e-05 -3.9227450901575919e-05 -4.1787300410153484e-05 -4.4579886764182329e-05 -4.7631950595071658e-05 -5.0973980711179564e-05 -5.4640836884975509e-05 -5.8672492282166051e-05 -6.3114922156877977e-05 -6.8021172164131101e-05 -7.3452647094427305e-05 -7.9480671625016606e-05 -8.6188389212028948e-05 -9.3673082489011101e-05 -1.0204902102449410e-04 -1.1145097314344931e-04 -1.2203855817182513e-04 -1.3400166663265865e-04 -1.4756724510112292e-04 -1.6300783493326766e-04 -1.8065237570834774e-04 -2.0089994782902148e-04 -2.2423735045002725e-04 -2.5126170652971041e-04 -2.8270968388475148e-04 -3.1949545595762733e-04 -3.6276023208266434e-04 -4.1393710942292728e-04 -4.7483617220506571e-04 -5.4775616705163342e-04 -6.3563058841295810e-04 -7.4221718304340312e-04 -8.7233962339543442e-04 -1.0321858781673124e-03 -1.2296540413438009e-03 -1.4747012764596210e-03 -1.7795705322091616e-03 -2.1585904500691496e-03 -2.6268386185107936e-03 -3.1958958357352915e-03 -3.8611375018743417e-03 -4.5570013174926847e-03 -4.9599146883356881e-03 -3.5057439218448283e-03 7.4711274074684107e-03 6.3096245253675382e-02 2.9604925810879101e-01 1.0000000000000000e+00 0.0000000000000000e+00 -4.4805924045028139e-06 -4.9559826713891769e-06 -5.0372138885100420e-06 -5.0578823498677451e-06 -5.0721071352720545e-06 -5.0881955804286405e-06 -5.1074001633737358e-06 -5.1299336423342778e-06 -5.1558644846349210e-06 -5.1852465389607725e-06 -5.2181375696609969e-06 -5.2546020364648871e-06 -5.2947117059062066e-06 -5.3385459724421649e-06 -5.3861921448609163e-06 -5.4377457499575685e-06 -5.4933108827636339e-06 -5.5530006133060428e-06 -5.6169374347853220e-06 -5.6852537323617871e-06 -5.7580922730490612e-06 -5.8356067417858554e-06 -5.9179623472940498e-06 -6.0053364963003674e-06 -6.0979195179503778e-06 -6.1959154340654021e-06 -6.2995427972216072e-06 -6.4090356213419594e-06 -6.5246444031581135e-06 -6.6466372137028622e-06 -6.7753008581463272e-06 -6.9109421396370982e-06 -7.0538892689341689e-06 -7.2044934243120801e-06 -7.3631304334962474e-06 -7.5302025685878260e-06 -7.7061404940339706e-06 -7.8914054219858756e-06 -8.0864914897107940e-06 -8.2919283399513482e-06 -8.5082839117179867e-06 -8.7361675025280721e-06 -8.9762331638817823e-06 -9.2291834366049316e-06 -9.4957734075350144e-06 -9.7768151256218000e-06 -1.0073182481767588e-05 -1.0385816637098600e-05 -1.0715732010825487e-05 -1.1064022833969048e-05 -1.1431870362088587e-05 -1.1820550894701071e-05 -1.2231444693333283e-05 -1.2666045829518715e-05 -1.3125973057402676e-05 -1.3612981921328255e-05 -1.4128978307317112e-05 -1.4676033548896825e-05 -1.5256401204386155e-05 -1.5872535778170144e-05 -1.6527113750561744e-05 -1.7223057200536639e-05 -1.7963560261914435e-05 -1.8752118820769148e-05 -1.9592564044118874e-05 -2.0489100297038639e-05 -2.1446347941769927e-05 -2.2469391717316317e-05 -2.3563835701796309e-05 -2.4735865906729978e-05 -2.5992321515167945e-05 -2.7340776093746519e-05 -2.8789630602340248e-05 -3.0348220171262679e-05 -3.2026936654912805e-05 -3.3837369587917441e-05 -3.5792469084864050e-05 -3.7906734602761053e-05 -4.0196433744697636e-05 -4.2679856523541054e-05 -4.5377612208608091e-05 -4.8312976817151933e-05 -5.1512300382703131e-05 -5.5005485849722845e-05 -5.8826554636709169e-05 -6.3014316306552894e-05 -6.7613163427784765e-05 -7.2674018799355413e-05 -7.8255468521026882e-05 -8.4425121320444338e-05 -9.1261245342338601e-05 -9.8854747235083650e-05 -1.0731157355856606e-04 -1.1675563558427829e-04 -1.2733238678108982e-04 -1.3921321577169908e-04 -1.5260086155051617e-04 -1.6773611690153731e-04 -1.8490615934278325e-04 -2.0445494350122113e-04 -2.2679621336442154e-04 -2.5242984902344988e-04 -2.8196245913098504e-04 -3.1613337714766977e-04 -3.5584751293364717e-04 -4.0221684373835159e-04 -4.5661266864318451e-04 -5.2073100243929570e-04 -5.9667345574419589e-04 -6.8704523089646195e-04 -7.9506963849838451e-04 -9.2471325124725929e-04 -1.0808045175311012e-03 -1.2691060074564980e-03 -1.4962570109944148e-03 -1.7694226134818325e-03 -2.0953379359484343e-03 -2.4781484111310510e-03 -2.9147031115694241e-03 -3.3829066661654047e-03 -3.8021577276634087e-03 -3.8504217605957610e-03 -2.0123120197570988e-03 9.2251950648206058e-03 6.4648197724788165e-02 2.9652418000614100e-01 1.0000000000000000e+00 0.0000000000000000e+00 -5.1256662357211303e-06 -5.6685957980678885e-06 -5.7613379596683780e-06 -5.7849198105247733e-06 -5.8011402374898980e-06 -5.8194836992354347e-06 -5.8413796332695045e-06 -5.8670705165507454e-06 -5.8966341423483084e-06 -5.9301316269483689e-06 -5.9676285454570699e-06 -6.0091980885229114e-06 -6.0549217438446943e-06 -6.1048896470161690e-06 -6.1592009007692903e-06 -6.2179639252676657e-06 -6.2812968648530994e-06 -6.3493280495767895e-06 -6.4221964904323297e-06 -6.5000523950645702e-06 -6.5830577182147066e-06 -6.6713867763513735e-06 -6.7652269405954920e-06 -6.8647793953488376e-06 -6.9702599462372338e-06 -7.0818998853786206e-06 -7.1999469422581355e-06 -7.3246663358814080e-06 -7.4563419154247072e-06 -7.5952773736219627e-06 -7.7417975500411573e-06 -7.8962498693655754e-06 -8.0590059419360676e-06 -8.2304633105977616e-06 -8.4110473179528731e-06 -8.6012131098027178e-06 -8.8014478315839103e-06 -9.0122730593857810e-06 -9.2342474596224260e-06 -9.4679696642184853e-06 -9.7140813968517955e-06 -9.9732709210753069e-06 -1.0246276847728127e-05 -1.0533892287894876e-05 -1.0836969356455157e-05 -1.1156424107951779e-05 -1.1493242013958883e-05 -1.1848484028633647e-05 -1.2223293236735734e-05 -1.2618902130246556e-05 -1.3036640649930487e-05 -1.3477945124316710e-05 -1.3944368160105846e-05 -1.4437589537094316e-05 -1.4959428272168482e-05 -1.5511856081720739e-05 -1.6097012396664599e-05 -1.6717221021801375e-05 -1.7375008636917386e-05 -1.8073125488767545e-05 -1.8814568608740309e-05 -1.9602607791893945e-05 -2.0440814646451772e-05 -2.1333095238525325e-05 -2.2283726921542928e-05 -2.3297399837212538e-05 -2.4379263643869758e-05 -2.5534980342478918e-05 -2.6770784256523075e-05 -2.8093550147699013e-05 -2.9510870534569913e-05 -3.1031143733660033e-05 -3.2663674523153744e-05 -3.4418789377789102e-05 -3.6307968422473360e-05 -3.8343996940764102e-05 -4.0541139984524518e-05 -4.2915344012228607e-05 -4.5484470038044538e-05 -4.8268563914291679e-05 -5.1290170668364002e-05 -5.4574700956742719e-05 -5.8150859201239809e-05 -6.2051145215586984e-05 -6.6312443717518455e-05 -7.0976718956756061e-05 -7.6091835475059673e-05 -8.1712530928616751e-05 -8.7901572536488093e-05 -9.4731135793801901e-05 -1.0228445350440762e-04 -1.1065779431260832e-04 -1.1996284343632863e-04 -1.3032957650897570e-04 -1.4190973962509491e-04 -1.5488107502705480e-04 -1.6945246670295555e-04 -1.8587022321169984e-04 -2.0442576541431103e-04 -2.2546505053327447e-04 -2.4940013988051385e-04 -2.7672340146731435e-04 -3.0802493307400478e-04 -3.4401388241755412e-04 -3.8554440360540130e-04 -4.3364698655949516e-04 -4.8956573726857341e-04 -5.5480171783563040e-04 -6.3116140383480477e-04 -7.2080718257893142e-04 -8.2630276467938947e-04 -9.5063899040668479e-04 -1.0972124764069258e-03 -1.2697073132593795e-03 -1.4717934344642913e-03 -1.7064973978843882e-03 -1.9750110293631582e-03 -2.2745400437678637e-03 -2.5942905024163906e-03 -2.9060354056816271e-03 -3.1296284546352897e-03 -2.9596399622947326e-03 -9.2858463153909694e-04 1.0376470825317875e-02 6.5565690462549994e-02 2.9674322159524363e-01 1.0000000000000000e+00 0.0000000000000000e+00 -5.7674625634679612e-06 -6.3775818151743638e-06 -6.4817678072709812e-06 -6.5082349795104591e-06 -6.5264225905981949e-06 -6.5469862423381915e-06 -6.5715314427588043e-06 -6.6003301778688828e-06 -6.6334693976310945e-06 -6.6710172825772546e-06 -6.7130469803792316e-06 -6.7596401419820867e-06 -6.8108876733281024e-06 -6.8668901170332154e-06 -6.9277580069526955e-06 -6.9936122647157850e-06 -7.0645846562287094e-06 -7.1408182969392373e-06 -7.2224681861324051e-06 -7.3097017696625030e-06 -7.4026995560309785e-06 -7.5016558112830001e-06 -7.6067793326466492e-06 -7.7182942808918417e-06 -7.8364410636929598e-06 -7.9614772914516251e-06 -8.0936788346977233e-06 -8.2333409871281977e-06 -8.3807797154550308e-06 -8.5363329917142036e-06 -8.7003622408537914e-06 -8.8732539455812174e-06 -9.0554214155748813e-06 -9.2473066945802458e-06 -9.4493825967312796e-06 -9.6621549139060456e-06 -9.8861648522370670e-06 -1.0121991715732642e-05 -1.0370255818447681e-05 -1.0631621631279096e-05 -1.0906801223965538e-05 -1.1196558065845718e-05 -1.1501711195251008e-05 -1.1823139743386515e-05 -1.2161787856070342e-05 -1.2518670121484695e-05 -1.2894877588681930e-05 -1.3291584386741972e-05 -1.3710054952876406e-05 -1.4151651967951483e-05 -1.4617845150423936e-05 -1.5110221001516579e-05 -1.5630493538703955e-05 -1.6180516122946157e-05 -1.6762294594186779e-05 -1.7378001913902619e-05 -1.8029994416519089e-05 -1.8720829796366379e-05 -1.9453287118544626e-05 -2.0230389214708377e-05 -2.1055427730671659e-05 -2.1931991063504067e-05 -2.2863995602982101e-05 -2.3855720849438823e-05 -2.4911848922289831e-05 -2.6037508929101215e-05 -2.7238326885599554e-05 -2.8520482141603309e-05 -2.9890771278295103e-05 -3.1356680425829032e-05 -3.2926467246376148e-05 -3.4609254201574619e-05 -3.6415134839148957e-05 -3.8355294997249469e-05 -4.0442151364926652e-05 -4.2689510353841460e-05 -4.5112750487243624e-05 -4.7729032097208697e-05 -5.0557539190883908e-05 -5.3619759123298235e-05 -5.6939806337139824e-05 -6.0544797966512510e-05 -6.4465291114198950e-05 -6.8735792999323594e-05 -7.3395357029430960e-05 -7.8488281304708529e-05 -8.4064929590992087e-05 -9.0182698033712224e-05 -9.6907156076923588e-05 -1.0431339694024345e-04 -1.1248763979860324e-04 -1.2152913436766434e-04 -1