<?xml version='1.0' encoding='utf-8'?>
<VTKFile type="UnstructuredGrid" version="0.1" byte_order="LittleEndian">
  <UnstructuredGrid>
    <Piece NumberOfPoints="16384" NumberOfCells="16129">
      <PointData>
        <DataArray type="Float64" Name="velocity_u" NumberOfComponents="1">0.0000000000000000e+00 0.0000000000000000e+00 0.0000000000000000e+00 0.0000000000000000e+00 0.0000000000000000e+00 0.0000000000000000e+00 0.0000000000000000e+00 0.0000000000000000e+00 0.0000000000000000e+00 0.0000000000000000e+00 0.0000000000000000e+00 0.0000000000000000e+00 0.0000000000000000e+00 0.0000000000000000e+00 0.0000000000000000e+00 0.0000000000000000e+00 0.0000000000000000e+00 0.0000000000000000e+00 0.0000000000000000e+00 0.0000000000000000e+00 0.0000000000000000e+00 0.0000000000000000e+00 0.0000000000000000e+00 0.0000000000000000e+00 0.0000000000000000e+00 0.0000000000000000e+00 0.0000000000000000e+00 0.0000000000000000e+00 0.0000000000000000e+00 0.0000000000000000e+00 0.0000000000000000e+00 0.0000000000000000e+00 0.0000000000000000e+00 0.0000000000000000e+00 0.0000000000000000e+00 0.0000000000000000e+00 0.0000000000000000e+00 0.0000000000000000e+00 0.0000000000000000e+00 0.0000000000000000e+00 0.0000000000000000e+00 0.0000000000000000e+00 0.0000000000000000e+00 0.0000000000000000e+00 0.0000000000000000e+00 0.0000000000000000e+00 0.0000000000000000e+00 0.0000000000000000e+00 0.0000000000000000e+00 0.0000000000000000e+00 0.0000000000000000e+00 0.0000000000000000e+00 0.0000000000000000e+00 0.0000000000000000e+00 0.0000000000000000e+00 0.0000000000000000e+00 0.0000000000000000e+00 0.0000000000000000e+00 0.0000000000000000e+00 0.0000000000000000e+00 0.0000000000000000e+00 0.0000000000000000e+00 0.0000000000000000e+00 0.0000000000000000e+00 0.0000000000000000e+00 0.0000000000000000e+00 0.0000000000000000e+00 0.0000000000000000e+00 0.0000000000000000e+00 0.0000000000000000e+00 0.0000000000000000e+00 0.0000000000000000e+00 0.0000000000000000e+00 0.0000000000000000e+00 0.0000000000000000e+00 0.0000000000000000e+00 0.0000000000000000e+00 0.0000000000000000e+00 0.0000000000000000e+00 0.0000000000000000e+00 0.0000000000000000e+00 0.0000000000000000e+00 0.0000000000000000e+00 0.0000000000000000e+00 0.0000000000000000e+00 0.0000000000000000e+00 0.0000000000000000e+00 0.0000000000000000e+00 0.0000000000000000e+00 0.0000000000000000e+00 0.0000000000000000e+00 0.0000000000000000e+00 0.0000000000000000e+00 0.0000000000000000e+00 0.0000000000000000e+00 0.0000000000000000e+00 0.0000000000000000e+00 0.0000000000000000e+00 0.0000000000000000e+00 0.0000000000000000e+00 0.0000000000000000e+00 0.0000000000000000e+00 0.0000000000000000e+00 0.0000000000000000e+00 0.0000000000000000e+00 0.0000000000000000e+00 0.0000000000000000e+00 0.0000000000000000e+00 0.0000000000000000e+00 0.0000000000000000e+00 0.0000000000000000e+00 0.0000000000000000e+00 0.0000000000000000e+00 0.0000000000000000e+00 0.0000000000000000e+00 0.0000000000000000e+00 0.0000000000000000e+00 0.0000000000000000e+00 0.0000000000000000e+00 0.0000000000000000e+00 0.0000000000000000e+00 0.0000000000000000e+00 0.0000000000000000e+00 0.0000000000000000e+00 0.0000000000000000e+00 0.0000000000000000e+00 0.0000000000000000e+00 1.0000000000000000e+00 0.0000000000000000e+00 -8.9829477323026965e-07 -1.1311695800180016e-06 -1.1908920513968773e-06 -1.2055071178238594e-06 -1.2106384843298581e-06 -1.2145926099765925e-06 -1.2190517207738928e-06 -1.2243083688495585e-06 -1.2304043655413228e-06 -1.2373476244231766e-06 -1.2451466248442687e-06 -1.2538137415305018e-06 -1.2633646102918175e-06 -1.2738175087259680e-06 -1.2851930430287105e-06 -1.2975140356987866e-06 -1.3108055309826045e-06 -1.3250948593540624e-06 -1.3404117177165335e-06 -1.3567882496162024e-06 -1.3742591408572180e-06 -1.3928617531473036e-06 -1.4126362954323702e-06 -1.4336260066894880e-06 -1.4558773278355793e-06 -1.4794400720117903e-06 -1.5043676242481252e-06 -1.5307171860435598e-06 -1.5585500458619174e-06 -1.5879318480814107e-06 -1.6189328645666681e-06 -1.6516283058277111e-06 -1.6860986972088377e-06 -1.7224302993641775e-06 -1.7607155310692905e-06 -1.8010533892069052e-06 -1.8435499139361735e-06 -1.8883187468668093e-06 -1.9354817728840634e-06 -1.9851697957631571e-06 -2.0375232302128155e-06 -2.0926928571773917e-06 -2.1508406964455995e-06 -2.2121409894486563e-06 -2.2767812450416740e-06 -2.3449633473014918e-06 -2.4169047964646998e-06 -2.4928401430192045e-06 -2.5730225869993936e-06 -2.6577256788294839e-06 -2.7472451413235300e-06 -2.8419009258948095e-06 -2.9420395814057058e-06 -3.0480368989308537e-06 -3.1603007775668927e-06 -3.2792743750046659e-06 -3.4054396857871531e-06 -3.5393216057878589e-06 -3.6814924346684548e-06 -3.8325768360214306e-06 -3.9932574377867928e-06 -4.1642812572772823e-06 -4.3464669674629297e-06 -4.5407129772903328e-06 -4.7480064992687577e-06 -4.9694339339738596e-06 -5.2061927786778407e-06 -5.4596051132866525e-06 -5.7311328663516860e-06 -6.0223953347475976e-06 -6.3351894086804839e-06 -6.6715127594059378e-06 -7.0335903716921519e-06 -7.4239051998458235e-06 -7.8452338414973440e-06 -8.3006879615435121e-06 -8.7937623829220196e-06 -9.3283912914628859e-06 -9.9090141759881315e-06 -1.0540653093870650e-05 -1.1229003595382376e-05 -1.1980542794747450e-05 -1.2802658173936940e-05 -1.3703800442409678e-05 -1.4693665578174958e-05 -1.5783414279827750e-05 -1.6985938115400839e-05 -1.8316181723446060e-05 -1.9791534094023640e-05 -2.1432308233172941e-05 -2.3262332749689871e-05 -2.5309683578454083e-05 -2.7607594590381409e-05 -3.0195599688853475e-05 -3.3120973807762477e-05 -3.6440562682691467e-05 -4.0223125258953530e-05 -4.4552356560273843e-05 -4.9530820278260371e-05 -5.5285112268371964e-05 -6.1972707769782515e-05 -6.9791135516594606e-05 -7.8990408555755607e-05 -8.9890076250247539e-05 -1.0290292640602422e-04 -1.1856840747462108e-04 -1.3760050670251354e-04 -1.6095753305840049e-04 -1.8994578236416096e-04 -2.2637683068091324e-04 -2.7281190123057734e-04 -3.3295170736637040e-04 -4.1227731340219835e-04 -5.1914012915551405e-04 -6.6668864224453330e-04 -8.7642268000749841e-04 -1.1850463955894225e-03 -1.6581966698568816e-03 -2.4183564166716963e-03 -3.6989681535689102e-03 -5.9270037269091068e-03 -9.7195474699792277e-03 -1.5035553050337141e-02 -1.5901101113096949e-02 2.3994250591431985e-02 2.6124522093180957e-01 1.0000000000000000e+00 0.0000000000000000e+00 -2.0283583328214733e-06 -2.5170404852148448e-06 -2.6440828880503121e-06 -2.6766058034759104e-06 -2.6885674768738929e-06 -2.6976736005591518e-06 -2.7077258216069570e-06 -2.7194692557471880e-06 -2.7330438451654315e-06 -2.7484862459826383e-06 -2.7658226954142869e-06 -2.7850836149140103e-06 -2.8063049467467236e-06 -2.8295278064384417e-06 -2.8547981999141291e-06 -2.8821669476362342e-06 -2.9116897490593897e-06 -2.9434273187548438e-06 -2.9774455578875682e-06 -3.0138157626059479e-06 -3.0526148878007275e-06 -3.0939258686519849e-06 -3.1378379752912633e-06 -3.1844471726745918e-06 -3.2338564875604515e-06 -3.2861764146152036e-06 -3.3415253893482027e-06 -3.4000303210907891e-06 -3.4618271583737970e-06 -3.5270614790101879e-06 -3.5958891337893077e-06 -3.6684769762217787e-06 -3.7450036734022812e-06 -3.8256605644908862e-06 -3.9106525569784805e-06 -4.0001991042022786e-06 -4.0945353202960581e-06 -4.1939132387737245e-06 -4.2986031697273978e-06 -4.4088951292694800e-06 -4.5251003842125797e-06 -4.6475531846949395e-06 -4.7766127072980867e-06 -4.9126651740122596e-06 -5.0561261353579928e-06 -5.2074429817994147e-06 -5.3670977650682371e-06 -5.5356103383719144e-06 -5.7135417716684331e-06 -5.9014980609839214e-06 -6.1001342561445945e-06 -6.3101591269117288e-06 -6.5323403751053020e-06 -6.7675103529119337e-06 -7.0165723562421616e-06 -7.2805076790854381e-06 -7.5603835705649862e-06 -7.8573621155904508e-06 -8.1727100872121415e-06 -8.5078099898501812e-06 -8.8641725742497498e-06 -9.2434509688055060e-06 -9.6474564978676654e-06 -1.0078176443194213e-05 -1.0537794221765307e-05 -1.1028712397204631e-05 -1.1553578777897495e-05 -1.2115315977747018e-05 -1.2717155156035444e-05 -1.3362674748762411e-05 -1.4055844838260710e-05 -1.4801077916951428e-05 -1.5603287318291164e-05 -1.6467954906748346e-05 -1.7401209481009726e-05 -1.8409917463018832e-05 -1.9501788302439742e-05 -2.0685497865445369e-05 -2.1970833164035730e-05 -2.3368861928810091e-05 -2.4892131920926922e-05 -2.6554906935868765e-05 -2.8373447644768137e-05 -3.0366346089142750e-05 -3.2554924850865773e-05 -3.4963716095971498e-05 -3.7621039942116439e-05 -4.0559705464181683e-05 -4.3817863541804569e-05 -4.7440049914982412e-05 -5.1478467963795763e-05 -5.5994574635799921e-05 -6.1061052653715511e-05 -6.6764278481569618e-05 -7.3207430135684143e-05 -8.0514427847826309e-05 -8.8834968267857735e-05 -9.8351004567428149e-05 -1.0928515615621091e-04 -1.2191172104219648e-04 -1.3657123200155652e-04 -1.5368989020626345e-04 -1.7380579565279118e-04 -1.9760476726263417e-04 -2.2596987660663159e-04 -2.6005088956454394e-04 -3.0136307215050635e-04 -3.5193006561909206e-04 -4.1449417339664107e-04 -4.9283192584570999e-04 -5.9223783759426067e-04 -7.2028366504014530e-04 -8.8804140832105080e-04 -1.1121102686096217e-03 -1.4180808374787985e-03 -1.8466441828600684e-03 -2.4646636021981175e-03 -3.3854650097260900e-03 -4.8046802200334771e-03 -7.0525016717000212e-03 -1.0607550404286896e-02 -1.5724725154765667e-02 -2.0119231506264844e-02 -9.1106516926592294e-03 7.6002119189519740e-02 3.8667182702835501e-01 1.0000000000000000e+00 0.0000000000000000e+00 -3.2155329660665559e-06 -3.9670685174142547e-06 -4.1620026392154217e-06 -4.2125884571277919e-06 -4.2316483515501742e-06 -4.2462044778784394e-06 -4.2621499989046978e-06 -4.2806922116368969e-06 -4.3020823987919230e-06 -4.3263947358476596e-06 -4.3536782282203426e-06 -4.3839842473234268e-06 -4.4173709328449427e-06 -4.4539036888820828e-06 -4.4936552054731872e-06 -4.5367055447281509e-06 -4.5831423254923543e-06 -4.6330609717258544e-06 -4.6865650103573269e-06 -4.7437664319910236e-06 -4.8047861277769150e-06 -4.8697543889032502e-06 -4.9388114366940220e-06 -5.0121079682549170e-06 -5.0898057407136583e-06 -5.1720782333852493e-06 -5.2591114019479234e-06 -5.3511045022844581e-06 -5.4482709601443875e-06 -5.5508392993796501e-06 -5.6590541686038196e-06 -5.7731774868089384e-06 -5.8934896872163559e-06 -6.0202910350789405e-06 -6.1539030423963897e-06 -6.2946700422727010e-06 -6.4429609607869366e-06 -6.5991712612092715e-06 -6.7637250183777971e-06 -6.9370771406409097e-06 -7.1197158199512761e-06 -7.3121652736770772e-06 -7.5149887704190456e-06 -7.7287919109366161e-06 -7.9542262016377113e-06 -8.1919930187485098e-06 -8.4428480254174508e-06 -8.7076060257847866e-06 -8.9871462515341145e-06 -9.2824181853452935e-06 -9.5944480832783672e-06 -9.9243462761617246e-06 -1.0273315232680814e-05 -1.0642658421124479e-05 -1.1033790158238633e-05 -1.1448246671345892e-05 -1.1887698484626339e-05 -1.2353964188675280e-05 -1.2849025793976921e-05 -1.3375046016328665e-05 -1.3934387781800349e-05 -1.4529636110853576e-05 -1.5163622642197934e-05 -1.5839453327458588e-05 -1.6560539907304517e-05 -1.7330635622914418e-05 -1.8153875620855120e-05 -1.9034822847439872e-05 -1.9978520506438997e-05 -2.0990552092938431e-05 -2.2077110003614333e-05 -2.3245074158178993e-05 -2.4502102600417152e-05 -2.5856736195709579e-05 -2.7318519628315967e-05 -2.8898141506117537e-05 -3.0607597281101355e-05 -3.2460379383122802e-05 -3.4471699696788569e-05 -3.6658750679189871e-05 -3.9041012721646003e-05 -4.1640616873995862e-05 -4.4482774640158556e-05 -4.7596289899740752e-05 -5.1014170803380232e-05 -5.4774362854036979e-05 -5.8920630935682563e-05 -6.3503626771291408e-05 -6.8582186704542521e-05 -7.4224915532885479e-05 -8.0512129524896997e-05 -8.7538254264135762e-05 -9.5414799800869459e-05 -1.0427407286415732e-04 -1.1427383865970232e-04 -1.2560321455419251e-04 -1.3849017221935017e-04 -1.5321115774008455e-04 -1.7010352581493370e-04 -1.8958174555443297e-04 -2.1215870889276664e-04 -2.3847401525344095e-04 -2.6933189831636204e-04 -3.0575263210723088e-04 -3.4904301817237241e-04 -4.0089424476349642e-04 -4.6351956674007232e-04 -5.3985080415860822e-04 -6.3382313874506030e-04 -7.5079475964136277e-04 -8.9817625330676216e-04 -1.0863925329564060e-03 -1.3303824568224941e-03 -1.6519847523228427e-03 -2.0838092970461991e-03 -2.6756179788473061e-03 -3.5048779215487644e-03 -4.6936518799176943e-03 -6.4317665667045837e-03 -8.9881010996166657e-03 -1.2600812427870686e-02 -1.6757728523485917e-02 -1.7039091135128741e-02 5.9000195797342895e-03 1.1403396057307398e-01 4.3285804621240082e-01 1.0000000000000000e+00 0.0000000000000000e+00 -4.4131412223235733e-06 -5.4298705186475341e-06 -5.6926420043904431e-06 -5.7610254363301259e-06 -5.7870789422420753e-06 -5.8070826868581849e-06 -5.8289559135525468e-06 -5.8543407099009256e-06 -5.8835922715047761e-06 -5.9168216090553491e-06 -5.9541013422335129e-06 -5.9955046558831022e-06 -6.0411124847143457e-06 -6.0910148868019130e-06 -6.1453114463855267e-06 -6.2041115803783998e-06 -6.2675348808952656e-06 -6.3357115022811978e-06 -6.4087826039799943e-06 -6.4869008714060311e-06 -6.5702311201754091e-06 -6.6589509609389344e-06 -6.7532514985050775e-06 -6.8533380703379639e-06 -6.9594310621001253e-06 -7.0717668326438185e-06 -7.1905987423586669e-06 -7.3161982545205714e-06 -7.4488561016378487e-06 -7.5888835508743059e-06 -7.7366138105770900e-06 -7.8924035817526898e-06 -8.0566347270146888e-06 -8.2297160523422898e-06 -8.4120852509602880e-06 -8.6042110708508144e-06 -8.8065957158138770e-06 -9.0197774414836874e-06 -9.2443333342044837e-06 -9.4808823361185131e-06 -9.7300886066801494e-06 -9.9926652530450394e-06 -1.0269378402600710e-05 -1.0561051621760783e-05 -1.0868570768818127e-05 -1.1192889385984143e-05 -1.1535034662095113e-05 -1.1896113953370776e-05 -1.2277321924518738e-05 -1.2679948476341880e-05 -1.3105387607793031e-05 -1.3555147247938047e-05 -1.4030860072397248e-05 -1.4534295454596300e-05 -1.5067372817032810e-05 -1.5632176587064621e-05 -1.6230972852764969e-05 -1.6866227880360595e-05 -1.7540628843157080e-05 -1.8257107157249445e-05 -1.9018864690922871e-05 -1.9829403106422106e-05 -2.0692556838138338e-05 -2.1612530417359834e-05 -2.2593940777579366e-05 -2.3641865081494679e-05 -2.4761894853952516e-05 -2.5960197585002540e-05 -2.7243587053244324e-05 -2.8619603562546450e-05 -3.0096605600001276e-05 -3.1683875017430130e-05 -3.3391738130911542e-05 -3.5231705218581952e-05 -3.7216631502073803e-05 -3.9360903743342744e-05 -4.1680657209457043e-05 -4.4194028162350013e-05 -4.6921448485355170e-05 -4.9885991337000818e-05 -5.3113778123883657e-05 -5.6634458055298471e-05 -6.0481774741305715e-05 -6.4694239526248297e-05 -6.9315935323382543e-05 -7.4397478306504361e-05 -7.9997172426748511e-05 -8.6182403033732008e-05 -9.3031326931932438e-05 -1.0063492967465375e-04 -1.0909954237613156e-04 -1.1854993791369776e-04 -1.2913315914468582e-04 -1.4102327792812273e-04 -1.5442734793312285e-04 -1.6959289664474127e-04 -1.8681741463317592e-04 -2.0646045899905618e-04 -2.2895920411644352e-04 -2.5484857308679667e-04 -2.8478751185653545e-04 -3.1959357577184021e-04 -3.6028886940148147e-04 -4.0816165175521987e-04 -4.6484978631379222e-04 -5.3245498593816035e-04 -6.1370097081641165e-04 -7.1215498928098482e-04 -8.3254186547277408e-04 -9.8119479242464967e-04 -1.1667105673275513e-03 -1.4009136681701513e-03 -1.7002906276712723e-03 -2.0881427610452120e-03 -2.5978279857153817e-03 -3.2776001849382170e-03 -4.1975470351934378e-03 -5.4581897822513683e-03 -7.1949559620456387e-03 -9.5482462703081715e-03 -1.2466901668887215e-02 -1.4827106035909669e-02 -1.1093782978544534e-02 1.9206579831729454e-02 1.3507267749835472e-01 4.4761133526581220e-01 1.0000000000000000e+00 0.0000000000000000e+00 -5.6101286261517427e-06 -6.8924385935935626e-06 -7.2229909297429933e-06 -7.3090038119701451e-06 -7.3419284466077114e-06 -7.3673090487049088e-06 -7.3950653048878990e-06 -7.4272554151697638e-06 -7.4643294115919472e-06 -7.5064315387874193e-06 -7.5536568016952765e-06 -7.6060998096683195e-06 -7.6638641245476003e-06 -7.7270642981497198e-06 -7.7958265967893960e-06 -7.8702895178525639e-06 -7.9506042937088310e-06 -8.0369354242447813e-06 -8.1294612694137797e-06 -8.2283747272188286e-06 -8.3338839949755474e-06 -8.4462133901279352e-06 -8.5656042190976340e-06 -8.6923157186051892e-06 -8.8266261096665455e-06 -8.9688337783392849e-06 -9.1192585590674791e-06 -9.2782430958025583e-06 -9.4461542978305438e-06 -9.6233849409923517e-06 -9.8103554469929865e-06 -1.0007515826842446e-05 -1.0215347763616554e-05 -1.0434366854813411e-05 -1.0665125078373464e-05 -1.0908213527598204e-05 -1.1164265401246617e-05 -1.1433959220593047e-05 -1.1718022305428535e-05 -1.2017234601554414e-05 -1.2332432930119281e-05 -1.2664515655061537e-05 -1.3014447749154472e-05 -1.3383266315311599e-05 -1.3772086685859467e-05 -1.4182109185298675e-05 -1.4614626563126374e-05 -1.5071032118570890e-05 -1.5552828650160519e-05 -1.6061638416032707e-05 -1.6599214208983804e-05 -1.7167451568877076e-05 -1.7768402231977621e-05 -1.8404289071115693e-05 -1.9077522801678919e-05 -1.9790720610531995e-05 -2.0546726841052385e-05 -2.1348636036148709e-05 -2.2199818783694852e-05 -2.3103950739471212e-05 -2.4065045109416312e-05 -2.5087489028248247e-05 -2.6176084547616844e-05 -2.7336094994716809e-05 -2.8573297331410600e-05 -2.9894041249650772e-05 -3.1305316139427129e-05 -3.2814827310129164e-05 -3.4431082788102507e-05 -3.6163492148672597e-05 -3.8022479434163339e-05 -4.0019612733467023e-05 -4.2167753083533249e-05 -4.4481225607743082e-05 -4.6976016806886116e-05 -4.9670003069280009e-05 -5.2583216012641267e-05 -5.5738150835710052e-05 -5.9160125541819388e-05 -6.2877701334900082e-05 -6.6923176465728297e-05 -7.1333167567055381e-05 -7.6149295649264543e-05 -8.1418998844969787e-05 -8.7196499439276689e-05 -9.3543958455391017e-05 -1.0053285889804705e-04 -1.0824566981462590e-04 -1.1677785694122874e-04 -1.2624032252535293e-04 -1.3676237942433680e-04 -1.4849539391324442e-04 -1.6161726942812558e-04 -1.7633799430174344e-04 -1.9290654386636710e-04 -2.1161951551126074e-04 -2.3283199583838817e-04 -2.5697132328716602e-04 -2.8455462994520083e-04 -3.1621135095794933e-04 -3.5271231433100494e-04 -3.9500761023494944e-04 -4.4427626409094720e-04 -5.0199190789905858e-04 -5.7001030193970937e-04 -6.5068693268146248e-04 -7.4703632295775274e-04 -8.6294958275780502e-04 -1.0034937449354213e-03 -1.1753263854585140e-03 -1.3872728404037710e-03 -1.6511316605346399e-03 -1.9827959000350130e-03 -2.4037974108387684e-03 -2.9433767667454312e-03 -3.6410817451568737e-03 -4.5494632043075580e-03 -5.7347913638170689e-03 -7.2673873678642332e-03 -9.1680700984896127e-03 -1.1178323624814902e-02 -1.1856621480595651e-02 -5.3423526422080210e-03 2.8500028336254531e-02 1.4564028306055027e-01 4.5171852220562764e-01 1.0000000000000000e+00 0.0000000000000000e+00 -6.8037497909528783e-06 -8.3511768782458267e-06 -8.7493912755197007e-06 -8.8529390434275905e-06 -8.8926476000966415e-06 -8.9233302054128184e-06 -8.9569023262304293e-06 -8.9958311818184674e-06 -9.0406563720605851e-06 -9.0915523051233191e-06 -9.1486347348584823e-06 -9.2120187964875522e-06 -9.2818301018039787e-06 -9.3582072322397938e-06 -9.4413026881429420e-06 -9.5312835703244374e-06 -9.6283322246934801e-06 -9.7326469118300984e-06 -9.8444425440609816e-06 -9.9639515125571250e-06 -1.0091424596578456e-05 -1.0227131936530933e-05 -1.0371364077589595e-05 -1.0524433119848591e-05 -1.0686674005738028e-05 -1.0858445937051664e-05 -1.1040133890346883e-05 -1.1232150225410311e-05 -1.1434936429791744e-05 -1.1648965054153799e-05 -1.1874741851545477e-05 -1.2112808093159105e-05 -1.2363743049698234e-05 -1.2628166683317315e-05 -1.2906742615664252e-05 -1.3200181394041541e-05 -1.3509244032385871e-05 -1.3834745828771179e-05 -1.4177560532139776e-05 -1.4538624952185742e-05 -1.4918944044629933e-05 -1.5319596448600294e-05 -1.5741740493762639e-05 -1.6186620787376633e-05 -1.6655575509632682e-05 -1.7150044467377158e-05 -1.7671577909899007e-05 -1.8221846186757099e-05 -1.8802650430294030e-05 -1.9415934427418244e-05 -2.0063797742743633e-05 -2.0748510154868591e-05 -2.1472527611522990e-05 -2.2238510009296354e-05 -2.3049341027053814e-05 -2.3908150146974425e-05 -2.4818337094740083e-05 -2.5783599127908865e-05 -2.6807961631926753e-05 -2.7895812361474093e-05 -2.9051939698612946e-05 -3.0281575566392307e-05 -3.1590443813528897e-05 -3.2984814795870315e-05 -3.4471566849793303e-05 -3.6058255670272171e-05 -3.7753192978698264e-05 -3.9565535915262063e-05 -4.1505388582725950e-05 -4.3583917578171816e-05 -4.5813483969149638e-05 -4.8207794469463491e-05 -5.0782074739391036e-05 -5.3553268378097341e-05 -5.6540266166579470e-05 -5.9764170923930858e-05 -6.3248604182177001e-05 -6.7020062238902067e-05 -7.1108330677910968e-05 -7.5546968021450905e-05 -8.0373871698936149e-05 -8.5631943000308083e-05 -9.1369870797986899e-05 -9.7643057230558305e-05 -1.0451471469899280e-04 -1.1205717170681362e-04 -1.2035343284338225e-04 -1.2949904794356951e-04 -1.3960436081610720e-04 -1.5079722687782700e-04 -1.6322631042771143e-04 -1.7706510166028968e-04 -1.9251683377542996e-04 -2.0982053037269844e-04 -2.2925847780070938e-04 -2.5116550479642143e-04 -2.7594056708213273e-04 -3.0406128589194657e-04 -3.3610229322539179e-04 -3.7275851126682282e-04 -4.1487486114853082e-04 -4.6348439342871469e-04 -5.1985750862472814e-04 -5.8556584895477250e-04 -6.6256567470549920e-04 -7.5330719666525390e-04 -8.6087852694585450e-04 -9.8919574095808959e-04 -1.1432540396842481e-03 -1.3294589236728933e-03 -1.5560597854024842e-03 -1.8337090319718373e-03 -2.1761620355050483e-03 -2.6011036302408968e-03 -3.1310046870138375e-03 -3.7937007503243652e-03 -4.6218215564694191e-03 -5.6485065672195033e-03 -6.8908835726628976e-03 -8.2894511095548580e-03 -9.4784108704823664e-03 -8.9142310323147567e-03 -7.7896211968731931e-04 3.4450547902864490e-02 1.5086903212507019e-01 4.5256195757298312e-01 1.0000000000000000e+00 0.0000000000000000e+00 -7.9929424316694800e-06 -9.8046121520848102e-06 -1.0270284597134248e-05 -1.0391288564835756e-05 -1.0437713894074357e-05 -1.0473627990543755e-05 -1.0512940797689248e-05 -1.0558526907732682e-05 -1.0611013366230920e-05 -1.0670602924424933e-05 -1.0737430751961019e-05 -1.0811631553433035e-05 -1.0893352257002744e-05 -1.0982754845114135e-05 -1.1080017449779249e-05 -1.1185335149401570e-05 -1.1298920726126803e-05 -1.1421005458822655e-05 -1.1551839996363721e-05 -1.1691695325855928e-05 -1.1840863823033828e-05 -1.1999660376669370e-05 -1.2168423609341411e-05 -1.2347517232865159e-05 -1.2537331552261190e-05 -1.2738285094535742e-05 -1.2950826338706669e-05 -1.3175435568576189e-05 -1.3412626908448622e-05 -1.3662950584552559e-05 -1.3926995401838929e-05 -1.4205391406664441e-05 -1.4498812748834139e-05 -1.4807980806585411e-05 -1.5133667628731754e-05 -1.5476699693972716e-05 -1.5837961971778823e-05 -1.6218402324944040e-05 -1.6619036349561197e-05 -1.7040952722124607e-05 -1.7485319049814884e-05 -1.7953388211186165e-05 -1.8446505259921663e-05 -1.8966115035165852e-05 -1.9513770581050996e-05 -2.0091142393631504e-05 -2.0700028526874830e-05 -2.1342365700855547e-05 -2.2020241608468156e-05 -2.2735908539771209e-05 -2.3491798377248301e-05 -2.4290539104784292e-05 -2.5134973120592757e-05 -2.6028177644677501e-05 -2.6973487390451966e-05 -2.7974519670567920e-05 -2.9035202296748735e-05 -3.0159804767242985e-05 -3.1352973155232485e-05 -3.2619769039855080e-05 -3.3965713005060366e-05 -3.5396833491448621e-05 -3.6919721800115009e-05 -3.8541593941401306e-05 -4.0270360196481968e-05 -4.2114703667000905e-05 -4.4084169272787620e-05 -4.6189264606431677e-05 -4.8441574284535670e-05 -5.0853890032090315e-05 -5.3440359132284224e-05 -5.6216653975929405e-05 -5.9200165947166764e-05 -6.2410227910806107e-05 -6.5868370285406626e-05 -6.9598616040231339e-05 -7.3627821140800583e-05 -7.7986069076830730e-05 -8.2707129564462342e-05 -8.7828992358519902e-05 -9.3394489679066725e-05 -9.9452025175147783e-05 -1.0605643079270032e-04 -1.1326997568947228e-04 -1.2116355730588233e-04 -1.2981811349201586e-04 -1.3932630249891234e-04 -1.4979450691982615e-04 -1.6134523287150847e-04 -1.7411999417102050e-04 -1.8828279137362091e-04 -2.0402432379802856e-04 -2.2156711067920063e-04 -2.4117174226622064e-04 -2.6314454015651564e-04 -2.8784698530275943e-04 -3.1570737054413463e-04 -3.4723526159498595e-04 -3.8303951997715959e-04 -4.2385085754415030e-04 -4.7055017067019545e-04 -5.2420426559305223e-04 -5.8611104609905085e-04 -6.5785681072427294e-04 -7.4138901524574744e-04 -8.3910867736165708e-04 -9.5398747319195079e-04 -1.0897153237092857e-03 -1.2508844652154535e-03 -1.4432147581628105e-03 -1.6738204985766089e-03 -1.9515076778218311e-03 -2.2870656273839716e-03 -2.6934651113071865e-03 -3.1857701724052985e-03 -3.7803548401688734e-03 -4.4925175381719425e-03 -5.3301534160124699e-03 -6.2759224822213017e-03 -7.2287867870570862e-03 -7.7866171705334476e-03 -6.4124131483656675e-03 2.5654287934861646e-03 3.8177701970076000e-02 1.5352998046962413e-01 4.5249166782060540e-01 1.0000000000000000e+00 0.0000000000000000e+00 -9.1769367064304979e-06 -1.1251724205559091e-05 -1.1784576169945069e-05 -1.1922947873444183e-05 -1.1976026560107139e-05 -1.2017101845769387e-05 -1.2062074063912800e-05 -1.2114224758775074e-05 -1.2174267778374236e-05 -1.2242433298383402e-05 -1.2318874971186973e-05 -1.2403746227572637e-05 -1.2497214556430742e-05 -1.2599464631244594e-05 -1.2710699503707980e-05 -1.2831141478533756e-05 -1.2961032961634036e-05 -1.3100637366051379e-05 -1.3250240114328067e-05 -1.3410149739704880e-05 -1.3580699071083807e-05 -1.3762246505646581e-05 -1.3955177402715481e-05 -1.4159905631422190e-05 -1.4376875268646084e-05 -1.4606562418725091e-05 -1.4849477150242453e-05 -1.5106165596075925e-05 -1.5377212277709352e-05 -1.5663242672697274e-05 -1.5964925997672443e-05 -1.6282978191273558e-05 -1.6618165139453357e-05 -1.6971306213971034e-05 -1.7343278156386592e-05 -1.7735019293905160e-05 -1.8147534093924615e-05 -1.8581898132120660e-05 -1.9039263569039764e-05 -1.9520865168469709e-05 -2.0028026837645843e-05 -2.0562168715422815e-05 -2.1124814932640443e-05 -2.1717602186771082e-05 -2.2342289190405679e-05 -2.3000767002952660e-05 -2.3695070331465416e-05 -2.4427389989848139e-05 -2.5200086688767129e-05 -2.6015706233999871e-05 -2.6876996222373836e-05 -2.7786924470456867e-05 -2.8748699495322833e-05 -2.9765793276643329e-05 -3.0841966444599274e-05 -3.1981296158505174e-05 -3.3188207140563364e-05 -3.4467506342704548e-05 -3.5824421604502850e-05 -3.7264644719513929e-05 -3.8794379595786412e-05 -4.0420396334503413e-05 -4.2150091946104777e-05 -4.3991558443418644e-05 -4.5953659408510324e-05 -4.8046116450939542e-05 -5.0279606956527550e-05 -5.2665874553665175e-05 -5.5217854213930334e-05 -5.7949814474195597e-05 -6.0877519407103177e-05 -6.4018413094737246e-05 -6.7391830155335891e-05 -7.1019236942820228e-05 -7.4924508563977554e-05 -7.9134247231821216e-05 -8.3678148755513300e-05 -8.8589425953571123e-05 -9.3905299346573357e-05 -9.9667566754571205e-05 -1.0592326571129915e-04 -1.1272544619327279e-04 -1.2013407495477822e-04 -1.2821709654471636e-04 -1.3705168121549860e-04 -1.4672569708103894e-04 -1.5733945225123038e-04 -1.6900776248723675e-04 -1.8186241271373545e-04 -1.9605509673987760e-04 -2.1176093902586482e-04 -2.2918272741493626e-04 -2.4855601714425323e-04 -2.7015530467211588e-04 -2.9430151929282902e-04 -3.2137114303501784e-04 -3.5180734505793924e-04 -3.8613361310499135e-04 -4.2497048527141798e-04 -4.6905612919535063e-04 -5.1927169154684265e-04 -5.7667254765537545e-04 -6.4252680642338318e-04 -7.1836265869859150e-04 -8.0602634831791319e-04 -9.0775259544398942e-04 -1.0262490413358589e-03 -1.1647953595957637e-03 -1.3273554725546453e-03 -1.5186967194634874e-03 -1.7445008894223597e-03 -2.0114354597269941e-03 -2.3271236195055293e-03 -2.6998995446868416e-03 -3.1381447836866493e-03 -3.6488358694414919e-03 -4.2345660814181356e-03 -4.8871637408848456e-03 -5.5713865832745374e-03 -6.1716385568713113e-03 -6.2871802613639564e-03 -4.4250971283480989e-03 4.9463696723379812e-03 4.0535099298770971e-02 1.5495096076139250e-01 4.5220746612528040e-01 1.0000000000000000e+00 0.0000000000000000e+00 -1.0355004049283202e-05 -1.2691590533714877e-05 -1.3291282511986043e-05 -1.3446916824015976e-05 -1.3506580848551842e-05 -1.3552742890110220e-05 -1.3603286141616862e-05 -1.3661898237319326e-05 -1.3729379575665189e-05 -1.3805987268102869e-05 -1.3891892788887403e-05 -1.3987267573443027e-05 -1.4092298933753090e-05 -1.4207193476914021e-05 -1.4332178375200599e-05 -1.4467502299251523e-05 -1.4613436347199867e-05 -1.4770275058456313e-05 -1.4938337537969161e-05 -1.5117968680128794e-05 -1.5309540479064500e-05 -1.5513453442557738e-05 -1.5730138149195456e-05 -1.5960056970484960e-05 -1.6203705941723620e-05 -1.6461616759390030e-05 -1.6734358924050213e-05 -1.7022542088089851e-05 -1.7326818654193422e-05 -1.7647886617120419e-05 -1.7986492619055814e-05 -1.8343435230659046e-05 -1.8719568524913126e-05 -1.9115806005635721e-05 -1.9533124897343113e-05 -1.9972570781911804e-05 -2.0435262620310911e-05 -2.0922398255520207e-05 -2.1435260470503589e-05 -2.1975223602732347e-05 -2.2543760707419966e-05 -2.3142451348472482e-05 -2.3772990167717311e-05 -2.4437196340904516e-05 -2.5137023941635800e-05 -2.5874573248250121e-05 -2.6652103141648690e-05 -2.7472044795421167e-05 -2.8337016783432184e-05 -2.9249841669959152e-05 -3.0213564242144663e-05 -3.1231471685817954e-05 -3.2307115992061178e-05 -3.3444338759476356e-05 -3.4647298573666410e-05 -3.5920501344423348e-05 -3.7268834101154712e-05 -3.8697602653851816e-05 -4.0212573468499833e-05 -4.1820020303382811e-05 -4.3526776388696378e-05 -4.5340292909460510e-05 -4.7268704457462709e-05 -4.9320902333069180e-05 -5.1506616971226547e-05 -5.3836510885393551e-05 -5.6322283445141104e-05 -5.8976789053441014e-05 -6.1814170860880824e-05 -6.4850012486572056e-05 -6.8101510292875247e-05 -7.1587669192829423e-05 -7.5329525798767790e-05 -7.9350403370562569e-05 -8.3676203555385035e-05 -8.8335740891647377e-05 -9.3361127249776081e-05 -9.8788214415136000e-05 -1.0465710460653051e-04 -1.1101274117512487e-04 -1.1790559382119059e-04 -1.2539245452205576e-04 -1.3353736411285936e-04 -1.4241269466781054e-04 -1.5210041699346510e-04 -1.6269358734366510e-04 -1.7429809603247145e-04 -1.8703473053149092e-04 -2.0104161498202982e-04 -2.1647710124766430e-04 -2.3352320482758455e-04 -2.5238969844399730e-04 -2.73