<?xml version='1.0' encoding='utf-8'?>
<VTKFile type="UnstructuredGrid" version="0.1" byte_order="LittleEndian">
  <UnstructuredGrid>
    <Piece NumberOfPoints="16384" NumberOfCells="16129">
      <PointData>
        <DataArray type="Float64" Name="velocity_u" NumberOfComponents="1">0.0000000000000000e+00 0.0000000000000000e+00 0.0000000000000000e+00 0.0000000000000000e+00 0.0000000000000000e+00 0.0000000000000000e+00 0.0000000000000000e+00 0.0000000000000000e+00 0.0000000000000000e+00 0.0000000000000000e+00 0.0000000000000000e+00 0.0000000000000000e+00 0.0000000000000000e+00 0.0000000000000000e+00 0.0000000000000000e+00 0.0000000000000000e+00 0.0000000000000000e+00 0.0000000000000000e+00 0.0000000000000000e+00 0.0000000000000000e+00 0.0000000000000000e+00 0.0000000000000000e+00 0.0000000000000000e+00 0.0000000000000000e+00 0.0000000000000000e+00 0.0000000000000000e+00 0.0000000000000000e+00 0.0000000000000000e+00 0.0000000000000000e+00 0.0000000000000000e+00 0.0000000000000000e+00 0.0000000000000000e+00 0.0000000000000000e+00 0.0000000000000000e+00 0.0000000000000000e+00 0.0000000000000000e+00 0.0000000000000000e+00 0.0000000000000000e+00 0.0000000000000000e+00 0.0000000000000000e+00 0.0000000000000000e+00 0.0000000000000000e+00 0.0000000000000000e+00 0.0000000000000000e+00 0.0000000000000000e+00 0.0000000000000000e+00 0.0000000000000000e+00 0.0000000000000000e+00 0.0000000000000000e+00 0.0000000000000000e+00 0.0000000000000000e+00 0.0000000000000000e+00 0.0000000000000000e+00 0.0000000000000000e+00 0.0000000000000000e+00 0.0000000000000000e+00 0.0000000000000000e+00 0.0000000000000000e+00 0.0000000000000000e+00 0.0000000000000000e+00 0.0000000000000000e+00 0.0000000000000000e+00 0.0000000000000000e+00 0.0000000000000000e+00 0.0000000000000000e+00 0.0000000000000000e+00 0.0000000000000000e+00 0.0000000000000000e+00 0.0000000000000000e+00 0.0000000000000000e+00 0.0000000000000000e+00 0.0000000000000000e+00 0.0000000000000000e+00 0.0000000000000000e+00 0.0000000000000000e+00 0.0000000000000000e+00 0.0000000000000000e+00 0.0000000000000000e+00 0.0000000000000000e+00 0.0000000000000000e+00 0.0000000000000000e+00 0.0000000000000000e+00 0.0000000000000000e+00 0.0000000000000000e+00 0.0000000000000000e+00 0.0000000000000000e+00 0.0000000000000000e+00 0.0000000000000000e+00 0.0000000000000000e+00 0.0000000000000000e+00 0.0000000000000000e+00 0.0000000000000000e+00 0.0000000000000000e+00 0.0000000000000000e+00 0.0000000000000000e+00 0.0000000000000000e+00 0.0000000000000000e+00 0.0000000000000000e+00 0.0000000000000000e+00 0.0000000000000000e+00 0.0000000000000000e+00 0.0000000000000000e+00 0.0000000000000000e+00 0.0000000000000000e+00 0.0000000000000000e+00 0.0000000000000000e+00 0.0000000000000000e+00 0.0000000000000000e+00 0.0000000000000000e+00 0.0000000000000000e+00 0.0000000000000000e+00 0.0000000000000000e+00 0.0000000000000000e+00 0.0000000000000000e+00 0.0000000000000000e+00 0.0000000000000000e+00 0.0000000000000000e+00 0.0000000000000000e+00 0.0000000000000000e+00 0.0000000000000000e+00 0.0000000000000000e+00 0.0000000000000000e+00 0.0000000000000000e+00 0.0000000000000000e+00 0.0000000000000000e+00 0.0000000000000000e+00 0.0000000000000000e+00 1.0000000000000000e+00 0.0000000000000000e+00 -1.1398820505657818e-06 -1.6561601430088545e-06 -1.8504570876197778e-06 -1.9136528690694389e-06 -1.9337908582288887e-06 -1.9426133804836479e-06 -1.9497575386277317e-06 -1.9577209111458037e-06 -1.9670328445300153e-06 -1.9777678755425055e-06 -1.9899252784697363e-06 -2.0035065332456428e-06 -2.0185245881922101e-06 -2.0350015900190248e-06 -2.0529663340594411e-06 -2.0724527815351048e-06 -2.0934993509384125e-06 -2.1161486283797678e-06 -2.1404472787166064e-06 -2.1664460617975665e-06 -2.1941999336839801e-06 -2.2237682306386420e-06 -2.2552149111838511e-06 -2.2886088158285929e-06 -2.3240239251788196e-06 -2.3615396377894892e-06 -2.4012411021750675e-06 -2.4432196072650402e-06 -2.4875729997644139e-06 -2.5344061042535432e-06 -2.5838311673020056e-06 -2.6359683734649031e-06 -2.6909464497235565e-06 -2.7489033209846248e-06 -2.8099867741276105e-06 -2.8743551454159336e-06 -2.9421780969834710e-06 -3.0136375248854988e-06 -3.0889285705974241e-06 -3.1682606833370332e-06 -3.2518587389129196e-06 -3.3399642845194898e-06 -3.4328369588809867e-06 -3.5307560602379358e-06 -3.6340222154226187e-06 -3.7429591806167778e-06 -3.8579158732827348e-06 -3.9792686890516279e-06 -4.1074240540283935e-06 -4.2428211582207547e-06 -4.3859349348248150e-06 -4.5372794314121647e-06 -4.6974116424402960e-06 -4.8669357520527854e-06 -5.0465077648021339e-06 -5.2368406526037906e-06 -5.4387101939153709e-06 -5.6529615538024889e-06 -5.8805165698284051e-06 -6.1223818417381525e-06 -6.3796578966896761e-06 -6.6535496470588147e-06 -6.9453781707745030e-06 -7.2565938713851294e-06 -7.5887913403256583e-06 -7.9437263661206395e-06 -8.3233353578416821e-06 -8.7297573521923469e-06 -9.1653590414082829e-06 -9.6327635468474785e-06 -1.0134883567418751e-05 -1.0674959368423619e-05 -1.1256602387646302e-05 -1.1883845761715858e-05 -1.2561203132823817e-05 -1.3293736888672541e-05 -1.4087137401340352e-05 -1.4947815776006779e-05 -1.5883013024344238e-05 -1.6900928432743335e-05 -1.8010870598806251e-05 -1.9223436420272227e-05 -2.0550724604349824e-05 -2.2006590624341649e-05 -2.3606951621947615e-05 -2.5370153363376322e-05 -2.7317414715999243e-05 -2.9473367636657181e-05 -3.1866715576419323e-05 -3.4531041497675229e-05 -3.7505805488823455e-05 -4.0837582221037450e-05 -4.4581605100566447e-05 -4.8803706837499081e-05 -5.3582774052774388e-05 -5.9013873334422933e-05 -6.5212264400047997e-05 -7.2318594400476479e-05 -8.0505677612771045e-05 -8.9987427871122462e-05 -1.0103074651902631e-04 -1.1397151212837428e-04 -1.2923633706990388e-04 -1.4737254555343635e-04 -1.6909004355758982e-04 -1.9532067027371654e-04 -2.2730371039093246e-04 -2.6671132268113110e-04 -3.1583620205175500e-04 -3.7787863819752581e-04 -4.5739664914906295e-04 -5.6103179274898324e-04 -6.9871647487822740e-04 -8.8575097359751200e-04 -1.1464996381324835e-03 -1.5211565685335593e-03 -2.0782716061496392e-03 -2.9373479110365104e-03 -4.3054003670117387e-03 -6.5174124009651294e-03 -1.0003094088140041e-02 -1.4864324385999182e-02 -1.9022545183573363e-02 -1.1663554461757736e-02 4.9219983342931678e-02 3.0508990418420401e-01 1.0000000000000000e+00 0.0000000000000000e+00 -2.7947545921061243e-06 -3.9196553324643232e-06 -4.3493025760385189e-06 -4.4959068502443162e-06 -4.5460604359386380e-06 -4.5690464269342835e-06 -4.5870648837740808e-06 -4.6063908504088316e-06 -4.6285902685777229e-06 -4.6540038195122849e-06 -4.6827037168804005e-06 -4.7147249816429444e-06 -4.7501115932655580e-06 -4.7889216683311376e-06 -4.8312258013996381e-06 -4.8771053527454155e-06 -4.9266514962988273e-06 -4.9799648245010065e-06 -5.0371552859129001e-06 -5.0983423421975328e-06 -5.1636552978434950e-06 -5.2332337611209996e-06 -5.3072281821676445e-06 -5.3858004283528083e-06 -5.4691244015214527e-06 -5.5573867340773137e-06 -5.6507875873196797e-06 -5.7495415357057260e-06 -5.8538785079827997e-06 -5.9640447895861279e-06 -6.0803041298950996e-06 -6.2029389877583363e-06 -6.3322518991594383e-06 -6.4685669274870247e-06 -6.6122311994735797e-06 -6.7636165924014673e-06 -6.9231216391182035e-06 -7.0911736504183842e-06 -7.2682310047911791e-06 -7.4547855933854609e-06 -7.6513654880376416e-06 -7.8585379174428157e-06 -8.0769125693104662e-06 -8.3071451863010023e-06 -8.5499414722173289e-06 -8.8060614115253147e-06 -9.0763241016924315e-06 -9.3616131036453240e-06 -9.6628822759964763e-06 -9.9811621572891814e-06 -1.0317567077316282e-05 -1.0673303149209841e-05 -1.1049677164033742e-05 -1.1448106388089252e-05 -1.1870129410195628e-05 -1.2317418301588211e-05 -1.2791792277095749e-05 -1.3295232931434842e-05 -1.3829901206848313e-05 -1.4398156457280408e-05 -1.5002578013465387e-05 -1.5645989494271672e-05 -1.6331486083666661e-05 -1.7062465260299688e-05 -1.7842661707619650e-05 -1.8676187056156194e-05 -1.9567574984555778e-05 -2.0521832443785581e-05 -2.1544498193823938e-05 -2.2641709956919197e-05 -2.3820281388139534e-05 -2.5087790337207814e-05 -2.6452680559880420e-05 -2.7924379487764155e-05 -2.9513434742588561e-05 -3.1231672496628066e-05 -3.3092381841112468e-05 -3.5110530392082977e-05 -3.7303017136406570e-05 -3.9688969664945198e-05 -4.2290094824909525e-05 -4.5131093989604909e-05 -4.8240156567735934e-05 -5.1649548715913967e-05 -5.5396318560152022e-05 -5.9523144394886963e-05 -6.4079359144111431e-05 -6.9122193703441287e-05 -7.4718293467850402e-05 -8.0945577033322591e-05 -8.7895526114956273e-05 -9.5676023066340406e-05 -1.0441488819756422e-04 -1.1426431662141979e-04 -1.2540647990342928e-04 -1.3806064879481856e-04 -1.5249231817697397e-04 -1.6902498881631890e-04 -1.8805550824864368e-04 -2.1007422829452798e-04 -2.3569174722926973e-04 -2.6567475502927096e-04 -3.0099461986261215e-04 -3.4289403893821469e-04 -3.9297966139195618e-04 -4.5335263061257178e-04 -5.2679541033679562e-04 -6.1704367175426642e-04 -7.2918930150665318e-04 -8.7028994049860369e-04 -1.0503115833672726e-03 -1.2836220483967908e-03 -1.5914195901489026e-03 -2.0057876822379538e-03 -2.5766232421772549e-03 -3.3836168490146540e-03 -4.5566410307812423e-03 -6.3076708398783808e-03 -8.9678666621963287e-03 -1.2976362518503986e-02 -1.8597521902324627e-02 -2.4636217850003087e-02 -2.4129547885048244e-02 7.5916271258411917e-03 1.3724497486254827e-01 4.7505653881962240e-01 1.0000000000000000e+00 0.0000000000000000e+00 -4.6403753826448906e-06 -6.4137817397911197e-06 -7.0872372124938951e-06 -7.3203385411777846e-06 -7.4027483964191306e-06 -7.4417242499958486e-06 -7.4721490110815286e-06 -7.5042342197895328e-06 -7.5407144197269791e-06 -7.5822793941643699e-06 -7.6291202879769898e-06 -7.6813304013163559e-06 -7.7389987276954319e-06 -7.8022282802008092e-06 -7.8711381433079209e-06 -7.9458628765095674e-06 -8.0265519667641694e-06 -8.1133696610776001e-06 -8.2064951194528313e-06 -8.3061228230781662e-06 -8.4124631902584281e-06 -8.5257433429640449e-06 -8.6462079663235562e-06 -8.7741202384009324e-06 -8.9097628556106907e-06 -9.0534391927095725e-06 -9.2054746050289976e-06 -9.3662178462127856e-06 -9.5360425847068229e-06 -9.7153490468908044e-06 -9.9045658355438018e-06 -1.0104151940674665e-05 -1.0314598915494786e-05 -1.0536433200420945e-05 -1.0770218639133692e-05 -1.1016559268860707e-05 -1.1276102427638918e-05 -1.1549542151823863e-05 -1.1837622832025614e-05 -1.2141143170392735e-05 -1.2460960543115939e-05 -1.2797995840511513e-05 -1.3153238783465032e-05 -1.3527753713605984e-05 -1.3922685939529023e-05 -1.4339268774497317e-05 -1.4778831343693593e-05 -1.5242807160876329e-05 -1.5732743515460020e-05 -1.6250311844588254e-05 -1.6797319313539865e-05 -1.7375721726542762e-05 -1.7987637804569798e-05 -1.8635364959126922e-05 -1.9321396860126677e-05 -2.0048443116734327e-05 -2.0819451271510067e-05 -2.1637631301734592e-05 -2.2506483017503149e-05 -2.3429826899749339e-05 -2.4411838843319026e-05 -2.5457089175666807e-05 -2.6570586509471233e-05 -2.7757827317111494e-05 -2.9024852202396076e-05 -3.0378309728427015e-05 -3.1825528787762703e-05 -3.3374600963046941e-05 -3.5034474658449647e-05 -3.6815062800252770e-05 -3.8727366110257017e-05 -4.0783614653730493e-05 -4.2997431049444587e-05 -4.5384019029038759e-05 -4.7960381544468703e-05 -5.0745573864569711e-05 -5.3760998445260525e-05 -5.7030749277653419e-05 -6.0582014839416497e-05 -6.4445551462650552e-05 -6.8656241815792150e-05 -7.3253755588988619e-05 -7.8283333180319186e-05 -8.3796719421338022e-05 -8.9853281271431637e-05 -9.6521350339804211e-05 -1.0387984150491904e-04 -1.1202021432977162e-04 -1.2104886179923085e-04 -1.3109003241092376e-04 -1.4228942288233980e-04 -1.5481862107751188e-04 -1.6888063168886302e-04 -1.8471678874295723e-04 -2.0261545934096087e-04 -2.2292307793595487e-04 -2.4605823391784631e-04 -2.7252979396387889e-04 -3.0296040449960814e-04 -3.3811723253306494e-04 -3.7895254119007393e-04 -4.2665777116673642e-04 -4.8273637711270781e-04 -5.4910301962003813e-04 -6.2822027407645128e-04 -7.2328948094714485e-04 -8.3852088188373123e-04 -9.7952171023664978e-04 -1.1538627411506667e-03 -1.3719197106547578e-03 -1.6481461034421705e-03 -2.0030358145707874e-03 -2.4662083726903180e-03 -3.0813421100796597e-03 -3.9141378215966395e-03 -5.0650428689017965e-03 -6.6883693296755113e-03 -9.0152919670618038e-03 -1.2357406403736487e-02 -1.6990141606712698e-02 -2.2573800280908343e-02 -2.6135142418161117e-02 -1.6356020909118855e-02 3.8939162688827918e-02 2.0633269200947046e-01 5.5218662025175569e-01 1.0000000000000000e+00 0.0000000000000000e+00 -6.5431369951204910e-06 -8.9830579914882918e-06 -9.9027339656341053e-06 -1.0221635259026210e-05 -1.0335902519305096e-05 -1.0390980867911716e-05 -1.0434160697094868e-05 -1.0479424611302996e-05 -1.0530623294644419e-05 -1.0588791600396150e-05 -1.0654248406268262e-05 -1.0727154423706685e-05 -1.0807650410514907e-05 -1.0895888872919305e-05 -1.0992040556041394e-05 -1.1096295553612153e-05 -1.1208863549407099e-05 -1.1329974113658769e-05 -1.1459877213249039e-05 -1.1598843949911342e-05 -1.1747167498294463e-05 -1.1905164191888566e-05 -1.2073174716405727e-05 -1.2251565415315318e-05 -1.2440729747797988e-05 -1.2641089928528123e-05 -1.2853098737107493e-05 -1.3077241468876853e-05 -1.3314038032011981e-05 -1.3564045239379567e-05 -1.3827859341349837e-05 -1.4106118799523682e-05 -1.4399507276744704e-05 -1.4708756857174888e-05 -1.5034651570236830e-05 -1.5378031293963075e-05 -1.5739796050339138e-05 -1.6120910661877577e-05 -1.6522409782203357e-05 -1.6945403395924308e-05 -1.7391082899149395e-05 -1.7860727804181260e-05 -1.8355713064415436e-05 -1.8877517069606064e-05 -1.9427730450998504e-05 -2.0008065835677641e-05 -2.0620368605352508e-05 -2.1266628691310135e-05 -2.1948993544884508e-05 -2.2669782532546062e-05 -2.3431502968849705e-05 -2.4236867886641808e-05 -2.5088815658396251e-05 -2.5990531751848839e-05 -2.6945473015409834e-05 -2.7957394816297870e-05 -2.9030381276633971e-05 -3.0168878982316559e-05 -3.1377734761180672e-05 -3.2662238162543140e-05 -3.4028169158332131e-05 -3.5481851661151129e-05 -3.7030213789854339e-05 -3.8680856052731552e-05 -4.0442128570926953e-05 -4.2323218482846420e-05 -4.4334249076867827e-05 -4.6486392691112973e-05 -4.8791999580726229e-05 -5.1264745066166535e-05 -5.3919797888080859e-05 -5.6774013592743646e-05 -5.9846157307726330e-05 -6.3157160640309396e-05 -6.6730418504170697e-05 -7.0592133411537749e-05 -7.4771716203799805e-05 -7.9302253364530223e-05 -8.4221053240192330e-05 -8.9570286971516020e-05 -9.5397743459526603e-05 -1.0175772110504909e-04 -1.0871208421418247e-04 -1.1633151961750467e-04 -1.2469703773926579e-04 -1.3390177213821691e-04 -1.4405314527599138e-04 -1.5527548710360351e-04 -1.6771321577754768e-04 -1.8153471859604301e-04 -1.9693711100400569e-04 -2.1415210369803012e-04 -2.3345327470430927e-04 -2.5516513422473421e-04 -2.7967449405333708e-04 -3.0744481814991428e-04 -3.3903445646256940e-04 -3.7511997871043110e-04 -4.1652625901587891e-04 -4.6426556995047072e-04 -5.1958881114185992e-04 -5.8405323587371657e-04 -6.5961282793672803e-04 -7.4874010477467496e-04 -8.5459200449993010e-04 -9.8123832363009901e-04 -1.1339799834416747e-03 -1.3197979105923957e-03 -1.5479942563050339e-03 -1.8311204570794753e-03 -2.1863382247945201e-03 -2.6374404973426705e-03 -3.2178833879236536e-03 -3.9753551895680417e-03 -4.9785910581475173e-03 -6.3270486218914117e-03 -8.1624689496231796e-03 -1.0673741892086757e-02 -1.4057914161658585e-02 -1.8306719301976311e-02 -2.2421571303381144e-02 -2.2035877812957860e-02 -3.4845537087257452e-03 6.6827981814226500e-02 2.4754517552289315e-01 5.8264574305386441e-01 1.0000000000000000e+00 0.0000000000000000e+00 -8.4574366359938819e-06 -1.1570600791879851e-05 -1.2737612920153174e-05 -1.3141610527171331e-05 -1.3287032221134142e-05 -1.3357857707518405e-05 -1.3413682361389486e-05 -1.3472129385666215e-05 -1.3538090954907605e-05 -1.3612915344727702e-05 -1.3697038878309568e-05 -1.3790687799982799e-05 -1.3894055336660644e-05 -1.4007344606352946e-05 -1.4130778899854396e-05 -1.4264604389499744e-05 -1.4409091209465972e-05 -1.4564534291779539e-05 -1.4731254293741295e-05 -1.4909598699700755e-05 -1.5099943093367270e-05 -1.5302692568579292e-05 -1.5518283268079436e-05 -1.5747184081753072e-05 -1.5989898547481140e-05 -1.6246966964255771e-05 -1.6518968690688678e-05 -1.6806524612325191e-05 -1.7110299811028668e-05 -1.7431006499076894e-05 -1.7769407252154328e-05 -1.8126318527738615e-05 -1.8502614457872313e-05 -1.8899230962243674e-05 -1.9317170267840810e-05 -1.9757505889113495e-05 -2.0221388060507127e-05 -2.0710049613973377e-05 -2.1224812369893657e-05 -2.1767094167392773e-05 -2.2338416623532428e-05 -2.2940413636806363e-05 -2.3574840656143874e-05 -2.4243584830669317e-05 -2.4948676214477417e-05 -2.5692300146700450e-05 -2.6476810855515258e-05 -2.7304746383275286e-05 -2.8178845062372032e-05 -2.9102063814284369e-05 -3.0077598449299593e-05 -3.1108906087178175e-05 -3.2199729939779012e-05 -3.3354126868493344e-05 -3.4576498137351608e-05 -3.5871623676158009e-05 -3.7244700203263770e-05 -3.8701383783844969e-05 -4.0247837550561962e-05 -4.1890785246064827e-05 -4.3637571217295960e-05 -4.5496227752327813e-05 -4.7475550992601624e-05 -4.9585186729856167e-05 -5.1835727349864041e-05 -5.4238821453557999e-05 -5.6807298236695268e-05 -5.9555309057560199e-05 -6.2498488723780084e-05 -6.5654139436022385e-05 -6.9041441206593089e-05 -7.2681693364975424e-05 -7.6598592245774247e-05 -8.0818550962407721e-05 -8.5371068671227741e-05 -9.0289158373712937e-05 -9.5609843800288280e-05 -1.0137473793208376e-04 -1.0763071861972626e-04 -1.1443072008867002e-04 -1.2183466295137293e-04 -1.2991055049023712e-04 -1.3873576549470668e-04 -1.4839860957887674e-04 -1.5900013672547747e-04 -1.7065634590213296e-04 -1.8350081371695332e-04 -1.9768786796251972e-04 -2.1339642935335162e-04 -2.3083468360280202e-04 -2.5024579010972500e-04 -2.7191489076121305e-04 -2.9617775893695018e-04 -3.2343153041622288e-04 -3.5414809185156193e-04 -3.8889088214008914e-04 -4.2833610653085225e-04 -4.7329969543143243e-04 -5.2477179308646124e-04 -5.8396118957028170e-04 -6.5235298519598635e-04 -7.3178400103980407e-04 -8.2454218328046388e-04 -9.3349872160468578e-04 -1.0622851434178941e-03 -1.2155327628498597e-03 -1.3991992904944140e-03 -1.6210182072772027e-03 -1.8911222052266858e-03 -2.2229146341902466e-03 -2.6342948484698440e-03 -3.1493862261913167e-03 -3.8009656262826580e-03 -4.6338241996998477e-03 -5.7091933648234020e-03 -7.1097414793367016e-03 -8.9420475518482544e-03 -1.1324020223228119e-02 -1.4313124118791999e-02 -1.7634461182219761e-02 -1.9807303738819972e-02 -1.5712673307955529e-02 8.9767055144557989e-03 8.6526536033991339e-02 2.6872819962598821e-01 5.9211007687736406e-01 1.0000000000000000e+00 0.0000000000000000e+00 -1.0369418121178136e-05 -1.4157109012064214e-05 -1.5571795710432064e-05 -1.6060529918486955e-05 -1.6236634481599647e-05 -1.6322854262900934e-05 -1.6391099281111492e-05 -1.6462582780059466e-05 -1.6543193515387844e-05 -1.6634566089842883e-05 -1.6737240627689777e-05 -1.6851502776935352e-05 -1.6977595666665688e-05 -1.7115771925523083e-05 -1.7266306775834774e-05 -1.7429501926580863e-05 -1.7605687336106713e-05 -1.7795222538592976e-05 -1.7998497976110589e-05 -1.8215936457420443e-05 -1.8447994759245484e-05 -1.8695165363320909e-05 -1.8957978350291292e-05 -1.9237003498527662e-05 -1.9532852620570611e-05 -1.9846182125835950e-05 -2.0177695780797520e-05 -2.0528147675423306e-05 -2.0898345456489351e-05 -2.1289153891317650e-05 -2.1701498776941496e-05 -2.2136371175546299e-05 -2.2594831988199791e-05 -2.3078016939503130e-05 -2.3587142055255433e-05 -2.4123509661482098e-05 -2.4688514896204793e-05 -2.5283652770114030e-05 -2.5910525891549716e-05 -2.6570852980302064e-05 -2.7266478222399377e-05 -2.7999381474643158e-05 -2.8771689392917548e-05 -2.9585687658152845e-05 -3.0443834477038000e-05 -3.1348775450364428e-05 -3.2303359880357650e-05 -3.3310658696701666e-05 -3.4373984287635431e-05 -3.5496912486910996e-05 -3.6683306871634922e-05 -3.7937345568735641e-05 -3.9263550948966266e-05 -4.0666822685306597e-05 -4.2152474570599092e-05 -4.3726275435199857e-05 -4.5394494672349286e-05 -4.7163953110344604e-05 -4.9042079999993279e-05 -5.1036976801665260e-05 -5.3157488591865411e-05 -5.5413284270163296e-05 -5.7814946962709981e-05 -6.0374075984895488e-05 -6.3103401843027720e-05 -6.6016916249149685e-05 -6.9130019609645420e-05 -7.2459688617942296e-05 -7.6024666832683312e-05 -7.9845681878045014e-05 -8.3945693784892353e-05 -8.8350179528464163e-05 -9.3087459472713212e-05 -9.8189072824013236e-05 -1.0369021084843076e-04 -1.0963021788586806e-04 -1.1605317185799623e-04 -1.2300855890090423e-04 -1.3055206009832495e-04 -1.3874647123808038e-04 -1.4766278061355357e-04 -1.5738143643294637e-04 -1.6799384274083438e-04 -1.7960413019140460e-04 -1.9233125862127483e-04 -2.0631152353601750e-04 -2.2170155580209690e-04 -2.3868192412004370e-04 -2.5746147852567802e-04 -2.7828261059071224e-04 -3.0142765087629497e-04 -3.2722668317209920e-04 -3.5606713493403357e-04 -3.8840560523812088e-04 -4.2478252400439138e-04 -4.6584041516691460e-04 -5.1234677361033985e-04 -5.6522287969179011e-04 -6.2558030035144904e-04 -6.9476740091618740e-04 -7.7442896852099004e-04 -8.6658310866079161e-04 -9.7372102742007791e-04 -1.0989372933989095e-03 -1.2461008842296645e-03 -1.4200810155723810e-03 -1.6270467228423583e-03 -1.8748657436970584e-03 -2.1736366391576431e-03 -2.5363980345281026e-03 -2.9800687881014910e-03 -3.5266776170551654e-03 -4.2049252429651714e-03 -5.0520430468283589e-03 -6.1156366439636097e-03 -7.4542994259000151e-03 -9.1328070479442958e-03 -1.1197896212941863e-02 -1.3589204408968597e-02 -1.5846235145164481e-02 -1.6227675902203628e-02 -9.3665433124052316e-03 1.8861289861431842e-02 9.8915292131695878e-02 2.7850676444948358e-01 5.9332433560700470e-01 1.0000000000000000e+00 0.0000000000000000e+00 -1.2274868095927412e-05 -1.6735863289571212e-05 -1.8397933965860928e-05 -1.8971158431272433e-05 -1.9177664507655928e-05 -1.9279015671493328e-05 -1.9359458062112054e-05 -1.9443785813039046e-05 -1.9538866428307411e-05 -1.9646605580025055e-05 -1.9767636990484955e-05 -1.9902299611553486e-05 -2.0050882949859378e-05 -2.0213687012194480e-05 -2.0391037474851512e-05 -2.0583290350388652e-05 -2.0790834221363659e-05 -2.1014091953993528e-05 -2.1253522382446915e-05 -2.1509622094973588e-05 -2.1782927348194501e-05 -2.2074016126993915e-05 -2.2383510394898104e-05 -2.2712078585835060e-05 -2.3060438352123696e-05 -2.3429359543994795e-05 -2.3819667406379210e-05 -2.4232246033467651e-05 -2.4668042157443435e-05 -2.5128069320897479e-05 -2.5613412427362993e-05 -2.6125232657945479e-05 -2.6664772795815642e-05 -2.7233363046955845e-05 -2.7832427422779330e-05 -2.8463490694288819e-05 -2.9128185929559715e-05 -2.9828262699779833e-05 -3.0565596091682433e-05 -3.1342196622714447e-05 -3.2160221080506153e-05 -3.3021984321245363e-05 -3.3929972166936234e-05 -3.4886855607305808e-05 -3.5895506457505749e-05 -3.6959014548848749e-05 -3.8080706577171109e-05 -3.9264166865004685e-05 -4.0513260334797891e-05 -4.1832157904121340e-05 -4.3225364478184173e-05 -4.4697749853419472e-05 -4.6254583011155332e-05 -4.7901570269826466e-05 -4.9644897660170271e-05 -5.1491277953093151e-05 -5.3448003016666249e-05 -5.5523002322893787e-05 -5.7724908358212960e-05 -6.0063129700627067e-05 -6.2547932821101812e-05 -6.5190533988980371e-05 -6.8003202709443448e-05 -7.0999378120704739e-05 -7.4193800137549871e-05 -7.7602657690707810e-05 -8.1243756700329371e-05 -8.5136710542754509e-05 -8.9303156308385067e-05 -9.3767001086509245e-05 -9.8554703200260071e-05 -1.0369559374117741e-04 -1.0922224473887259e-04 -1.1517089200011049e-04 -1.2158192217984414e-04 -1.2850043484184122e-04 -1.3597689227427918e-04 -1.4406787305840641e-04 -1.5283694871224423e-04 -1.6235570586304126e-04 -1.7270494094523238e-04 -1.8397606107283082e-04 -1.9627273212149878e-04 -2.0971282310819020e-04 -2.2443070704506542e-04 -2.4057999329545860e-04 -2.5833678365706460e-04 -2.7790356545785017e-04 -2.9951388341442462e-04 -3.2343796786529571e-04 -3.4998954069640045e-04 -3.7953407776285594e-04 -4.1249888172942441e-04 -4.4938541318209385e-04 -4.9078445004136872e-04 -5.3739480686318419e-04 -5.9004655264155361e-04 -6.4972993538750599e-04 -7.1763157854271573e-04 -7.9517997728957102e-04 -8.8410292655016873e-04 -9.8650030369979401e-04 -1.1049366474201838e-03 -1.2425592739322322e-03 -1.4032493022165836e-03 -1.5918149174635502e-03 -1.8142384052363839e-03 -2.0779906313530610e-03 -2.3924279263238574e-03 -2.7692849924634512e-03 -3.2232696449286569e-03 -3.7727426992500454e-03 -4.4404107950523995e-03 -5.2538262923774552e-03 -6.2451498394840927e-03 -7.4486857139728834e-03 -8.8917933589990217e-03 -1.0565385457868788e-02 -1.2330209503749558e-02 -1.3625805237729792e-02 -1.2618217139281395e-02 -3.9680721592500511e-03 2.5981963092565945e-02 1.0626574056079069e-01 2.8259345185299151e-01 5.9194621160710936e-01 1.0000000000000000e+00 0.0000000000000000e+00 -1.4172073192030045e-05 -1.9303928099761860e-05 -2.1212630721076491e-05 -2.1870060475903591e-05 -2.2106764839130409e-05 -2.2223047138719242e-05 -2.2315484411571506e-05 -2.2412451879083890e-05 -2.2521791390847193e-05 -2.2645673292463843e-05 -2.2784819033953588e-05 -2.2939616367621857e-05 -2.3110397936247726e-05 -2.3297508753920215e-05 -2.3501323074797425e-05 -2.3722249561482185e-05 -2.3960733818481922e-05 -2.4217260392319159e-05 -2.4492354747418814e-05 -2.4786585341213890e-05 -2.5100565829327112e-05 -2.5434957437147733e-05 -2.5790471555290545e-05 -2.6167872601522407e-05 -2.6567981146255998e-05 -2.6991677277631635e-05 -2.7439904218166335e-05 -2.7913672260307374e-05 -2.8414063095329494e-05 -2.8942234559855993e-05 -2.9499425783096829e-05 -3.0086962743899304e-05 -3.0706264310280206e-05 -3.1358848851659245e-05 -3.2046341465795734e-05 -3.2770481825350044e-05 -3.3533132690885202e-05 -3.4336289214328624e-05 -3.5182089164680498e-05 -3.6072824134151523e-05 -3.7010951741398541e-05 -3.7999108920192811e-05 -3.9040126488840932e-05 -4.0137045200637401e-05 -4.1293133388878271e-05 -4.2511906295815406e-05 -4.3797147283272371e-05 -4.5152931227883126e-05 -4.6583650370537831e-05 -4.8094042805294266e-05 -4.9689223852189286e-05 -5.1374720742278129e-05 -5.3156511125273105e-05 -5.5041065816883922e-05 -5.7035396163723454e-05 -5.9147106593457525e-05 -6.1384453149166174e-05 -6.3756408823260148e-05 -6.6272736434853900e-05 -6.8944069961643015e-05 -7.1782005594781147e-05 -7.4799203959618820e-05 -7.8009504905248705e-05 -8.1428056440422845e-05 -8.5071459921380019e-05 -8.8957934036688226e-05 -9.3107500256717115e-05 -9.7542192695630647e-05 -1.0228629611473960e-04 -1.0736661662289829e-04 -1.1281279011174607e-04 -1.1865763410785116e-04 -1.2493755002639331e-04 -1.3169298431310443e-04 -1.3896895822749665e-04 -1.4681567762499310e-04 -1.5528923651741096e-04 -1.6445243094467224e-04 -1.7437570264243558e-04 -1.8513823591167721e-04 -1.9682923609785116e-04 -2.0954942368161473e-04 -2.2341278489223008e-04 -2.3854862895076527e-04 -2.5510401298142548e-04 -2.7324660839562006e-04 -2.9316809924613573e-04 -3.1508822447953179e-04 -3.3925960158822440e-04 -3.6597350087562018e-04 -3.9556678071197193e-04 -4.2843024583144661e-04 -4.6501875455865106e-04 -5.0586348200205638e-04 -5.5158684998805744e-04 -6.0292076452100364e-04 -6.6072896475345992e-04 -7.2603449473697087e-04 -8.0005356829041831e-04 -8.8423741636833213e-04 -9.8032409917508576e-04 -1.0904027344766590e-03 -1.2169931292329991e-03 -1.3631443803925470e-03 -1.5325565462530203e-03 -1.7297298031595269e-03 -1.9601452467886290e-03 -2.2304799728524094e-03 -2.5488549986232099e-03 -2.9251056062161683e-03 -3.3710454715450144e-03 -3.9006604700128197e-03 -4.5300991833762804e-03 -5.2771871985780082e-03 -6.1598736248792514e-03 -7.1921622711964821e-03 -8.3734242406144754e-03 -9.6581988857320743e-03 -1.0864966562017724e-02 -1.1396411979065008e-02 -9.4212909555234613e-03 2.6844605051079724e-04 3.0885287429377916e-02 1.1053418894209444e-01 2.8408870241708689e-01 5.9012737608355492e-01 1.0000000000000000e+00 0.0000000000000000e+00 -1.6059849631623571e-05 -2.1859405747711012e-05 -2.4013661293439965e-05 -2.4754924234629158e-05 -2.5021632582194661e-05 -2.5152670435811098e-05 -2.5256911130944557e-05 -2.5366306875898520e-05 -2.5489673231001155e-05 -2.5629443255801836e-05 -2.5786423288638160e-05 -2.5961046988773916e-05 -2.6153687555446728e-05 -2.6364732773082976e-05 -2.6594603471879032e-05 -2.6843759071965312e-05 -2.7112700316692360e-05 -2.7401971487391235e-05 -2.7712162618262709e-05 -2.8043911821573892e-05 -2.8397907757490110e-05 -2.8774892298162756e-05 -2.9175663445825629e-05 -2.9601078532865507e-05 -3.0052057690367392e-05 -3.0529587574823186e-05 -3.1034725394303125e-05 -3.1568603313612156e-05 -3.2132433293969663e-05 -3.2727512365984391e-05 -3.3355228323810476e-05 -3.4017065882825342e-05 -3.4714613395840130e-05 -3.5449570204849082e-05 -3.6223754647736555e-05 -3.7039112735584528e-05 -3.7897727587387312e-05 -3.8801829764541551e-05 -3.9753808609305948e-05 -4.0756224617579230e-05 -4.1811822889558587e-05 -4.2923547809665952e-05 -4.4094559174804098e-05 -4.5328249934530914e-05 -4.6628265630419165e-05 -4.7998525669973903e-05 -4.9443246702574480e-05 -5.0966968406257426e-05 -5.2574581909958386e-05 -5.4271361049165123e-05 -5.6062996797289939e-05 -5.7955635372872930e-05 -5.9955920497895075e-05 -6.2071040179789938e-05 -6.4308778472025024e-05 -6.6677572920741717e-05 -6.9186578533423897e-05 -7.1845739031116835e-05 -7.4665866173463836e-05 -7.7658728249353393e-05 -8.0837149113043458e-05 -8.4215119158535841e-05 -8.7807919646297152e-05 -9.1632262187534846e-05 -9.5706445711967424e-05 -1.0005053345764798e-04 -1.0468655264349884e-04 -1.0963872004838485e-04 -1.1493369754846244e-04 -1.2060088217932094e-04 -1.2667273572068848e-04 -1.3318515985360349e-04 -1.4017792436051344e-04 -1.4769515686454757e-04 -1.5578590369757849e-04 -1.6450477363772818e-04 -1.7391267886694505e-04 -1.8407768954662921e-04 -1.9507602102662429e-04 -2.0699317724944834e-04 -2.1992527894971561e-04 -2.3398060969605848e-04 -2.4928141919831220e-04 -2.6596603285017909e-04 -2.8419132643540246e-04 -3.0413563557111047e-04 -3.2600218506344616e-04 -3.5002314319249322e-04 -3.7646442716499496e-04 -4.0563141292086465e-04 -4.3787573856997883e-04 -4.7360343248031459e-04 -5.132846