<?xml version='1.0' encoding='utf-8'?>
<VTKFile type="UnstructuredGrid" version="0.1" byte_order="LittleEndian">
  <UnstructuredGrid>
    <Piece NumberOfPoints="16384" NumberOfCells="16129">
      <PointData>
        <DataArray type="Float64" Name="velocity_u" NumberOfComponents="1">0.0000000000000000e+00 0.0000000000000000e+00 0.0000000000000000e+00 0.0000000000000000e+00 0.0000000000000000e+00 0.0000000000000000e+00 0.0000000000000000e+00 0.0000000000000000e+00 0.0000000000000000e+00 0.0000000000000000e+00 0.0000000000000000e+00 0.0000000000000000e+00 0.0000000000000000e+00 0.0000000000000000e+00 0.0000000000000000e+00 0.0000000000000000e+00 0.0000000000000000e+00 0.0000000000000000e+00 0.0000000000000000e+00 0.0000000000000000e+00 0.0000000000000000e+00 0.0000000000000000e+00 0.0000000000000000e+00 0.0000000000000000e+00 0.0000000000000000e+00 0.0000000000000000e+00 0.0000000000000000e+00 0.0000000000000000e+00 0.0000000000000000e+00 0.0000000000000000e+00 0.0000000000000000e+00 0.0000000000000000e+00 0.0000000000000000e+00 0.0000000000000000e+00 0.0000000000000000e+00 0.0000000000000000e+00 0.0000000000000000e+00 0.0000000000000000e+00 0.0000000000000000e+00 0.0000000000000000e+00 0.0000000000000000e+00 0.0000000000000000e+00 0.0000000000000000e+00 0.0000000000000000e+00 0.0000000000000000e+00 0.0000000000000000e+00 0.0000000000000000e+00 0.0000000000000000e+00 0.0000000000000000e+00 0.0000000000000000e+00 0.0000000000000000e+00 0.0000000000000000e+00 0.0000000000000000e+00 0.0000000000000000e+00 0.0000000000000000e+00 0.0000000000000000e+00 0.0000000000000000e+00 0.0000000000000000e+00 0.0000000000000000e+00 0.0000000000000000e+00 0.0000000000000000e+00 0.0000000000000000e+00 0.0000000000000000e+00 0.0000000000000000e+00 0.0000000000000000e+00 0.0000000000000000e+00 0.0000000000000000e+00 0.0000000000000000e+00 0.0000000000000000e+00 0.0000000000000000e+00 0.0000000000000000e+00 0.0000000000000000e+00 0.0000000000000000e+00 0.0000000000000000e+00 0.0000000000000000e+00 0.0000000000000000e+00 0.0000000000000000e+00 0.0000000000000000e+00 0.0000000000000000e+00 0.0000000000000000e+00 0.0000000000000000e+00 0.0000000000000000e+00 0.0000000000000000e+00 0.0000000000000000e+00 0.0000000000000000e+00 0.0000000000000000e+00 0.0000000000000000e+00 0.0000000000000000e+00 0.0000000000000000e+00 0.0000000000000000e+00 0.0000000000000000e+00 0.0000000000000000e+00 0.0000000000000000e+00 0.0000000000000000e+00 0.0000000000000000e+00 0.0000000000000000e+00 0.0000000000000000e+00 0.0000000000000000e+00 0.0000000000000000e+00 0.0000000000000000e+00 0.0000000000000000e+00 0.0000000000000000e+00 0.0000000000000000e+00 0.0000000000000000e+00 0.0000000000000000e+00 0.0000000000000000e+00 0.0000000000000000e+00 0.0000000000000000e+00 0.0000000000000000e+00 0.0000000000000000e+00 0.0000000000000000e+00 0.0000000000000000e+00 0.0000000000000000e+00 0.0000000000000000e+00 0.0000000000000000e+00 0.0000000000000000e+00 0.0000000000000000e+00 0.0000000000000000e+00 0.0000000000000000e+00 0.0000000000000000e+00 0.0000000000000000e+00 0.0000000000000000e+00 0.0000000000000000e+00 0.0000000000000000e+00 0.0000000000000000e+00 0.0000000000000000e+00 0.0000000000000000e+00 1.0000000000000000e+00 0.0000000000000000e+00 -8.1277774945454005e-07 -9.8656914475079337e-07 -1.0262633747630661e-06 -1.0355126853389534e-06 -1.0392310887970606e-06 -1.0425571976616031e-06 -1.0464265365257116e-06 -1.0509882743077286e-06 -1.0562645063940952e-06 -1.0622628820851241e-06 -1.0689925644150955e-06 -1.0764654045682690e-06 -1.0846955207137578e-06 -1.0936989885643363e-06 -1.1034937235697913e-06 -1.1140994770068872e-06 -1.1255378795573463e-06 -1.1378324954721778e-06 -1.1510088843297350e-06 -1.1650946859920373e-06 -1.1801197356256213e-06 -1.1961161940294144e-06 -1.2131186731197242e-06 -1.2311643566649834e-06 -1.2502931396960871e-06 -1.2705478065268381e-06 -1.2919742386414314e-06 -1.3146216238097127e-06 -1.3385426536737916e-06 -1.3637937314923413e-06 -1.3904352233429101e-06 -1.4185317583736496e-06 -1.4481525510630848e-06 -1.4793717237533092e-06 -1.5122686453646705e-06 -1.5469283224333503e-06 -1.5834418519203473e-06 -1.6219069065870471e-06 -1.6624282294138819e-06 -1.7051181620774214e-06 -1.7500972590666402e-06 -1.7974950018173759e-06 -1.8474505719485298e-06 -1.9001136477344518e-06 -1.9556452540172494e-06 -2.0142187345419708e-06 -2.0760208716663872e-06 -2.1412531131255157e-06 -2.2101328767186618e-06 -2.2828949800527581e-06 -2.3597932707428498e-06 -2.4411024664166827e-06 -2.5271201551161255e-06 -2.6181689589858413e-06 -2.7145989626083501e-06 -2.8167905013649048e-06 -2.9251572960650098e-06 -3.0401498805556011e-06 -3.1622593792713113e-06 -3.2920217948847988e-06 -3.4300229045612562e-06 -3.5769037448240204e-06 -3.7333667084644350e-06 -3.9001824394778696e-06 -4.0781977378787492e-06 -4.2683445393344410e-06 -4.4716499984511975e-06 -4.6892479073091460e-06 -4.9223918357330577e-06 -5.1724702597436558e-06 -5.4410238124430402e-06 -5.7297649752573281e-06 -6.0406008166896769e-06 -6.3756593826830923e-06 -6.7373202027981372e-06 -7.1282495505362779e-06 -7.5514414935694474e-06 -8.0102659512336761e-06 -8.5085250272180028e-06 -9.0505191830670094e-06 -9.6411252095947367e-06 -1.0285888257653865e-05 -1.0991130925494069e-05 -1.1764083629064560e-05 -1.2613041133733599e-05 -1.3547550287087398e-05 -1.4578635679483439e-05 -1.5719073328781628e-05 -1.6983724956839673e-05 -1.8389947117055020e-05 -1.9958093864247112e-05 -2.1712138990381855e-05 -2.3680451239894134e-05 -2.5896764983570525e-05 -2.8401403616891440e-05 -3.1242833330732568e-05 -3.4479650939522953e-05 -3.8183146456458455e-05 -4.2440635087852662e-05 -4.7359829491725353e-05 -5.3074632093560091e-05 -5.9752888600765757e-05 -6.7606884899873106e-05 -7.6907730737985300e-05 -8.8005328610793343e-05 -1.0135649746847815e-04 -1.1756520479734797e-04 -1.3744111204855726e-04 -1.6208639598486296e-04 -1.9302722526131559e-04 -2.3241755514182461e-04 -2.8336339737034726e-04 -3.5045426144557574e-04 -4.4066386631833276e-04 -5.6493619570742524e-04 -7.4110132750244040e-04 -9.9949233197960162e-04 -1.3942679409398324e-03 -2.0269523667826046e-03 -3.0946848233966559e-03 -4.9755935725860536e-03 -8.2878678460319658e-03 -1.3328438053423625e-02 -1.5605770761049100e-02 1.7551847556494544e-02 2.4272804165188400e-01 1.0000000000000000e+00 0.0000000000000000e+00 -1.7983343457371899e-06 -2.1593941479580337e-06 -2.2428976807662008e-06 -2.2631764521353769e-06 -2.2716041155808827e-06 -2.2790372244828372e-06 -2.2875678344615964e-06 -2.2975726917614030e-06 -2.3091233951448214e-06 -2.3222457632360643e-06 -2.3369632735499242e-06 -2.3533031532693026e-06 -2.3712967794974675e-06 -2.3909795088926133e-06 -2.4123906117306802e-06 -2.4355733176961159e-06 -2.4605749163461555e-06 -2.4874468851347369e-06 -2.5162450501093743e-06 -2.5470297902443815e-06 -2.5798662789673988e-06 -2.6148247431154256e-06 -2.6519807307101130e-06 -2.6914154033181145e-06 -2.7332158755985626e-06 -2.7774756030537775e-06 -2.8242947939659482e-06 -2.8737808270162151e-06 -2.9260486897808250e-06 -2.9812214762254686e-06 -3.0394309630218872e-06 -3.1008182457173603e-06 -3.1655344050150710e-06 -3.2337412058231423e-06 -3.3056118666675410e-06 -3.3813319279549348e-06 -3.4611002073679479e-06 -3.5451298170394355e-06 -3.6336492542528901e-06 -3.7269036167248263e-06 -3.8251559757536309e-06 -3.9286888846351732e-06 -4.0378059845927895e-06 -4.1528337281634001e-06 -4.2741232985628236e-06 -4.4020527819520162e-06 -4.5370295756801219e-06 -4.6794929967943681e-06 -4.8299171249910319e-06 -4.9888139743063638e-06 -5.1567370506502558e-06 -5.3342852788234448e-06 -5.5221073010377710e-06 -5.7209062499904914e-06 -5.9314451348063204e-06 -6.1545528883425822e-06 -6.3911310547363561e-06 -6.6421611819020480e-06 -6.9087131220582678e-06 -7.1919544348836227e-06 -7.4931609629912599e-06 -7.8137286440411925e-06 -8.1551867913320313e-06 -8.5192131762031753e-06 -8.9076511441586638e-06 -9.3225289245035251e-06 -9.7660814722603441e-06 -1.0240775407940261e-05 -1.0749337589265038e-05 -1.1294787719349866e-05 -1.1880475564305021e-05 -1.2510123722213087e-05 -1.3187876995013812e-05 -1.3918359323066176e-05 -1.4706739508160226e-05 -1.5558807556788895e-05 -1.6481063733263875e-05 -1.7480822340082296e-05 -1.8566332822424868e-05 -1.9746922128607454e-05 -2.1033163023478241e-05 -2.2437072987222124e-05 -2.3972349344246727e-05 -2.5654649129068039e-05 -2.7501924643080777e-05 -2.9534826616566756e-05 -3.1777189327117390e-05 -3.4256617697042026e-05 -3.7005202402786801e-05 -4.0060394392453021e-05 -4.3466079069464945e-05 -4.7273904054771616e-05 -5.1544930134098154e-05 -5.6351695379446526e-05 -6.1780813052582462e-05 -6.7936264656007648e-05 -7.4943603251108711e-05 -8.2955360070353153e-05 -9.2158057587579678e-05 -1.0278138513395079e-04 -1.1511031588749767e-04 -1.2950127116078533e-04 -1.4640391651988183e-04 -1.6639089284935636e-04 -1.9019888343585752e-04 -2.1878611269795609e-04 -2.5341404129917787e-04 -2.9576531529730018e-04 -3.4811706404262374e-04 -4.1360044688193908e-04 -4.9659765996343144e-04 -6.0336348576502509e-04 -7.4302366893551678e-04 -9.2922453737944398e-04 -1.1829438631139066e-03 -1.5374381885051838e-03 -2.0472245157227326e-03 -2.8047309921134136e-03 -3.9707839056054581e-03 -5.8241849158361366e-03 -8.8020347479259957e-03 -1.3287592023816519e-02 -1.7881377017124313e-02 -1.0961531757064722e-02 6.0299431200119408e-02 3.5361027278643981e-01 1.0000000000000000e+00 0.0000000000000000e+00 -2.8212638133455584e-06 -3.3732950618810440e-06 -3.5007791139676258e-06 -3.5321353963926833e-06 -3.5454147678337251e-06 -3.5571250804846864e-06 -3.5704953374215957e-06 -3.5861335618991432e-06 -3.6041671090534031e-06 -3.6246441896536597e-06 -3.6476050368879900e-06 -3.6730937118006894e-06 -3.7011598533697309e-06 -3.7318589165849460e-06 -3.7652522801443978e-06 -3.8014073958840614e-06 -3.8403979755047186e-06 -3.8823042134411000e-06 -3.9272130603358357e-06 -3.9752185529622574e-06 -4.0264221862164744e-06 -4.0809333090079721e-06 -4.1388695461066666e-06 -4.2003572680848846e-06 -4.2655321251897867e-06 -4.3345396340244913e-06 -4.4075357935281651e-06 -4.4846877289498441e-06 -4.5661743961073372e-06 -4.6521873812061398e-06 -4.7429317971299221e-06 -4.8386272465933920e-06 -4.9395088363916530e-06 -5.0458282694437157e-06 -5.1578550585369558e-06 -5.2758778756664888e-06 -5.4002060159626698e-06 -5.5311709678632485e-06 -5.6691281278261541e-06 -5.8144587123971375e-06 -5.9675718774540679e-06 -6.1289070124139301e-06 -6.2989362048467716e-06 -6.4781669415790651e-06 -6.6671451325919904e-06 -6.8664584826647076e-06 -7.0767401802508378e-06 -7.2986729096694008e-06 -7.5329932761815652e-06 -7.7804967465294305e-06 -8.0420431367932049e-06 -8.3185626473262186e-06 -8.6110625219033779e-06 -8.9206344916311942e-06 -9.2484631260547453e-06 -9.5958351185099157e-06 -9.9641495552755528e-06 -1.0354929364876729e-05 -1.0769834216111676e-05 -1.1210675040202981e-05 -1.1679430279997336e-05 -1.2178264090561432e-05 -1.2709546887952120e-05 -1.3275878630123563e-05 -1.3880115108220677e-05 -1.4525397621235578e-05 -1.5215186678995691e-05 -1.5953300483257492e-05 -1.6743958821150073e-05 -1.7591833062393968e-05 -1.8502103344126151e-05 -1.9480524347280388e-05 -2.0533501053226024e-05 -2.1668175950504072e-05 -2.2892529742506463e-05 -2.4215498292640505e-05 -2.5647108812720380e-05 -2.7198638512144063e-05 -2.8882799793633915e-05 -3.0713957493870170e-05 -3.2708384925210066e-05 -3.4884566477382485e-05 -3.7263555986016204e-05 -3.9869402577639391e-05 -4.2729659111794484e-05 -4.5875992069962174e-05 -4.9344915887291539e-05 -5.3178680495191390e-05 -5.7426349112755999e-05 -6.2145113799231102e-05 -6.7401909284814572e-05 -7.3275402937049915e-05 -7.9858462194812540e-05 -8.7261232271717705e-05 -9.5614999193678274e-05 -1.0507707012141011e-04 -1.1583698134129282e-04 -1.2812445400114836e-04 -1.4221966943185456e-04 -1.5846664945720645e-04 -1.7729083485729764e-04 -1.9922239770329880e-04 -2.2492746723434649e-04 -2.5525040666631564e-04 -2.9127171328601143e-04 -3.3438829334029923e-04 -3.8642623687800554e-04 -4.4980151239323168e-04 -5.2775245015059815e-04 -6.2468162269086456e-04 -7.4666746349452218e-04 -9.0224426772252521e-04 -1.1036148992454265e-03 -1.3685747547993331e-03 -1.7236255087911489e-03 -2.2091022650082503e-03 -2.8876892715173352e-03 -3.8583242780753585e-03 -5.2767304548513140e-03 -7.3732653954471511e-03 -1.0397900402288135e-02 -1.4138037271032404e-02 -1.5515397528059208e-02 9.1349358586584328e-04 9.1389281613951767e-02 3.9267793284612496e-01 1.0000000000000000e+00 0.0000000000000000e+00 -3.8497774627406225e-06 -4.5938587703221236e-06 -4.7652332113809624e-06 -4.8075132149207689e-06 -4.8255846945106056e-06 -4.8415654404528437e-06 -4.8597860735823540e-06 -4.8810719738681288e-06 -4.9056025643411235e-06 -4.9334480641995685e-06 -4.9646658028719572e-06 -4.9993170232441633e-06 -5.0374698538579642e-06 -5.0791999679274570e-06 -5.1245908912007605e-06 -5.1737342747303861e-06 -5.2267301849382284e-06 -5.2836874372926244e-06 -5.3447239936804181e-06 -5.4099674215030395e-06 -5.4795553946919994e-06 -5.5536362249851939e-06 -5.6323694370749290e-06 -5.7159264128378751e-06 -5.8044911113997323e-06 -5.8982608472177509e-06 -5.9974471106644037e-06 -6.1022764473409856e-06 -6.2129914346416720e-06 -6.3298517771617681e-06 -6.4531355044757599e-06 -6.5831402454300173e-06 -6.7201845874097621e-06 -6.8646095661539005e-06 -7.0167803228389428e-06 -7.1770879233391679e-06 -7.3459513188755867e-06 -7.5238194642560557e-06 -7.7111736501956204e-06 -7.9085300917244331e-06 -8.1164427626945922e-06 -8.3355064561998648e-06 -8.5663601091601772e-06 -8.8096904834019070e-06 -9.0662362689786021e-06 -9.3367926045493830e-06 -9.6222160016952581e-06 -9.9234297382207349e-06 -1.0241429844042537e-05 -1.0577291762465615e-05 -1.0932177703072156e-05 -1.1307344732935788e-05 -1.1704153755475984e-05 -1.2124079552428628e-05 -1.2568721979046391e-05 -1.3039818361641395e-05 -1.3539257258099065e-05 -1.4069093873912933e-05 -1.4631567399991054e-05 -1.5229120431687036e-05 -1.5864420672499753e-05 -1.6540385318249798e-05 -1.7260208604839004e-05 -1.8027392913054200e-05 -1.8845783822823880e-05 -1.9719609750624523e-05 -2.0653527024842259e-05 -2.1652671223204313e-05 -2.2722715564977955e-05 -2.3869937445563363e-05 -2.5101294616326678e-05 -2.6424512665531568e-05 -2.7848185530520134e-05 -2.9381891202000894e-05 -3.1036325416712666e-05 -3.2823456568245796e-05 -3.4756705551570446e-05 -3.6851155220444018e-05 -3.9123795185393631e-05 -4.1593808490785991e-05 -4.4282908167017575e-05 -4.7215734224318091e-05 -5.0420324000916342e-05 -5.3928670533710841e-05 -5.7777387145526492e-05 -6.2008502560108959e-05 -6.6670416892904404e-05 -7.1819054737395834e-05 -7.7519261391559426e-05 -8.3846502599361824e-05 -9.0888944090366757e-05 -9.8750007322749030e-05 -1.0755152743652383e-04 -1.1743767820834919e-04 -1.2857987811022616e-04 -1.4118296002262013e-04 -1.5549298159914189e-04 -1.7180718009980692e-04 -1.9048675117442273e-04 -2.1197337855285392e-04 -2.3681078830877059e-04 -2.6567309286566082e-04 -2.9940239866289311e-04 -3.3905917989082447e-04 -3.8599042595698714e-04 -4.4192280573389722e-04 -5.0909144471655539e-04 -5.9041998694320166e-04 -6.8977538837140047e-04 -8.1233289695726034e-04 -9.6510533314398913e-04 -1.1577198587778112e-03 -1.4035704493407229e-03 -1.7215425197069372e-03 -2.1386035958585923e-03 -2.6936699422199324e-03 -3.4431994476085666e-03 -4.4684566912705052e-03 -5.8812077548162948e-03 -7.8091742158551362e-03 -1.0273564621916361e-02 -1.2582195366133343e-02 -1.0780010128213609e-02 1.1534131753983533e-02 1.0855262056628598e-01 4.0500707674714337e-01 1.0000000000000000e+00 0.0000000000000000e+00 -4.8770000147265632e-06 -5.8131623658922631e-06 -6.0283589774061696e-06 -6.0814657759716774e-06 -6.1042591051678340e-06 -6.1244640471579506e-06 -6.1474990588193678e-06 -6.1743975769113475e-06 -6.2053866461427225e-06 -6.2405566940871299e-06 -6.2799814730525135e-06 -6.3237391317607286e-06 -6.3719161144011647e-06 -6.4246081303374858e-06 -6.4819206238270384e-06 -6.5439691625994292e-06 -6.6108798379383415e-06 -6.6827897188632697e-06 -6.7598473771175109e-06 -6.8422134712434396e-06 -6.9300613695826857e-06 -7.0235778122829958e-06 -7.1229636375313103e-06 -7.2284345955491547e-06 -7.3402222477997528e-06 -7.4585749314311472e-06 -7.5837587860318640e-06 -7.7160588714841836e-06 -7.8557804111970271e-06 -8.0032501644169030e-06 -8.1588179037407938e-06 -8.3228579894192114e-06 -8.4957710751739436e-06 -8.6779859961909426e-06 -8.8699618566874285e-06 -9.0721902964634224e-06 -9.2851979290184103e-06 -9.5095489946352661e-06 -9.7458482916885403e-06 -9.9947444092747070e-06 -1.0256933243425279e-05 -1.0533161805121956e-05 -1.0824232395399028e-05 -1.1131007239132874e-05 -1.1454413609243716e-05 -1.1795449427486371e-05 -1.2155189375467337e-05 -1.2534791634369160e-05 -1.2935505377420214e-05 -1.3358679065342589e-05 -1.3805769571576728e-05 -1.4278352250848788e-05 -1.4778132146521512e-05 -1.5306956491300333e-05 -1.5866828574740422e-05 -1.6459923097411599e-05 -1.7088603282056814e-05 -1.7755440065311115e-05 -1.8463233598421106e-05 -1.9215037250285150e-05 -2.0014184464651523e-05 -2.0864318990046632e-05 -2.1769428973923381e-05 -2.2733885343321703e-05 -2.3762485052540970e-05 -2.4860500058134806e-05 -2.6033732957675473e-05 -2.7288580160934576e-05 -2.8632103645164831e-05 -3.0072112788495150e-05 -3.1617258034357904e-05 -3.3277138170280623e-05 -3.5062423339022675e-05 -3.6984996644755877e-05 -3.9058117739863748e-05 -4.1296611959666730e-05 -4.3717089301466119e-05 -4.6338199098402555e-05 -4.9180927496251798e-05 -5.2268945401096921e-05 -5.5629016008470637e-05 -5.9291474203396560e-05 -6.3290793269533813e-05 -6.7666256515214545e-05 -7.2462755044174588e-05 -7.7731739472211158e-05 -8.3532360598519604e-05 -8.9932841266481477e-05 -9.7012132507596948e-05 -1.0486192251362202e-04 -1.1358908478209961e-04 -1.2331867458474419e-04 -1.3419761526629949e-04 -1.4639925722807393e-04 -1.6012904550981294e-04 -1.7563160558507445e-04 -1.9319965558593484e-04 -2.1318528346165230e-04 -2.3601430830356065e-04 -2.6220469373583829e-04 -2.9239032044669762e-04 -3.2735190017143124e-04 -3.6805748122668077e-04 -4.1571593253699233e-04 -4.7184812595340593e-04 -5.3838244014827678e-04 -6.1778392809735819e-04 -7.1323038825873183e-04 -8.2885414582433152e-04 -9.7007620625546307e-04 -1.1440702909747916e-03 -1.3604085380545918e-03 -1.6319575477759495e-03 -1.9761082240458490e-03 -2.4164192552968426e-03 -2.9846825335618598e-03 -3.7231245351422478e-03 -4.6854047431732901e-03 -5.9311541915739799e-03 -7.4930185057008932e-03 -9.2287890622861496e-03 -1.0198090033866528e-02 -6.1875325610316039e-03 1.8991620399658609e-02 1.1728026240046603e-01 4.0865134613680948e-01 1.0000000000000000e+00 0.0000000000000000e+00 -5.9011959352832492e-06 -7.0290088765737551e-06 -7.2879286870514434e-06 -7.3518022164397855e-06 -7.3792625674382371e-06 -7.4036402453765772e-06 -7.4314385843724936e-06 -7.4638955179599318e-06 -7.5012831036087176e-06 -7.5437104203236212e-06 -7.5912667635481424e-06 -7.6440466520335732e-06 -7.7021544482914061e-06 -7.7657055299276756e-06 -7.8348268709088166e-06 -7.9096575295279279e-06 -7.9903491578437353e-06 -8.0770665764496085e-06 -8.1699884203318604e-06 -8.2693078365756798e-06 -8.3752332205751613e-06 -8.4879890062559946e-06 -8.6078165427506483e-06 -8.7349750743589914e-06 -8.8697428117549862e-06 -9.0124180780015882e-06 -9.1633205400382651e-06 -9.3227925604513381e-06 -9.4912006922223989e-06 -9.6689373056524585e-06 -9.8564223292869462e-06 -1.0054105121357613e-05 -1.0262466523809148e-05 -1.0482021138576008e-05 -1.0713319819613240e-05 -1.0956952357637716e-05 -1.1213550375614232e-05 -1.1483790500725849e-05 -1.1768397868510273e-05 -1.2068149962865981e-05 -1.2383880781698562e-05 -1.2716485372190444e-05 -1.3066924830406840e-05 -1.3436231833406701e-05 -1.3825516708620915e-05 -1.4235974048828023e-05 -1.4668889964950473e-05 -1.5125650121481538e-05 -1.5607748649000321e-05 -1.6116797962129139e-05 -1.6654539552462659e-05 -1.7222855934872321e-05 -1.7823783949427437e-05 -1.8459529539230438e-05 -1.9132484100224919e-05 -1.9845242621065878e-05 -2.0600623949591741e-05 -2.1401693480693277e-05 -2.2251788472193346e-05 -2.3154546279903778e-05 -2.4113936006493092e-05 -2.5134294121962368e-05 -2.6220364523798444e-05 -2.7377343552733014e-05 -2.8610930753543322e-05 -2.9927386363917178e-05 -3.1333596467625643e-05 -3.2837146788615074e-05 -3.4446406487147092e-05 -3.6170623725978670e-05 -3.8020034866107192e-05 -4.0005989254322570e-05 -4.2141092136552560e-05 -4.4439368995127055e-05 -4.6916455037904617e-05 -4.9589813909705884e-05 -5.2478990600505366e-05 -5.5605904928763156e-05 -5.8995193315397259e-05 -6.2674607801233947e-05 -6.6675482922396592e-05 -7.1033283515940497e-05 -7.5788249752216087e-05 -8.0986159395541796e-05 -8.6679231442881964e-05 -9.2927200685300964e-05 -9.9798600222640832e-05 -1.0737229828552498e-04 -1.1573934682029951e-04 -1.2500521365923123e-04 -1.3529248917530263e-04 -1.4674418273734956e-04 -1.5952775545131765e-04 -1.7384007623591469e-04 -1.8991354189065433e-04 -2.0802367257081615e-04 -2.2849858645311379e-04 -2.5173088027314596e-04 -2.7819260821457367e-04 -3.0845427181984804e-04 -3.4320902899161458e-04 -3.8330373222670536e-04 -4.2977894657907805e-04 -4.8392082641765814e-04 -5.4732871675095766e-04 -6.2200365971150622e-04 -7.1046471970473771e-04 -8.1590227215225697e-04 -9.4238012330677293e-04 -1.0951013466190193e-03 -1.2807553098635961e-03 -1.5079635892121437e-03 -1.7878357425419851e-03 -2.1346218425024079e-03 -2.5663841088579943e-03 -3.1054514871614943e-03 -3.7780289595342083e-03 -4.6112540924054006e-03 -5.6223966566227475e-03 -6.7805622123194055e-03 -7.8594195897329459e-03 -7.8389575996066913e-03 -2.5323726094866779e-03 2.3811650922016911e-02 1.2171708809669227e-01 4.0962870180998479e-01 1.0000000000000000e+00 0.0000000000000000e+00 -6.9215655250247403e-06 -8.2403595579958486e-06 -8.5428560565592669e-06 -8.6174420522033908e-06 -8.6495219865948440e-06 -8.6780199712587341e-06 -8.7105229683427605e-06 -8.7484724956394023e-06 -8.7921845187431988e-06 -8.8417857968934143e-06 -8.8973804177653867e-06 -8.9590786822518778e-06 -9.0270023646375403e-06 -9.1012860238231765e-06 -9.1820776619866552e-06 -9.2695392980481309e-06 -9.3638475800780916e-06 -9.4651944710476502e-06 -9.5737880008367705e-06 -9.6898530642561226e-06 -9.8136322652670712e-06 -9.9453868367214423e-06 -1.0085397667719395e-05 -1.0233966443474937e-05 -1.0391416879068672e-05 -1.0558096039554408e-05 -1.0734375770342625e-05 -1.0920654271798730e-05 -1.1117357826518780e-05 -1.1324942662061604e-05 -1.1543896946873497e-05 -1.1774742959094956e-05 -1.2018039482363851e-05 -1.2274384446108016e-05 -1.2544417787362169e-05 -1.2828824525473178e-05 -1.3128338098213804e-05 -1.3443744033820879e-05 -1.3775883994912652e-05 -1.4125660185576907e-05 -1.4494040133947544e-05 -1.4882061926332634e-05 -1.5290839984755710e-05 -1.5721571424534217e-05 -1.6175542991605082e-05 -1.6654138634561259e-05 -1.7158847850193113e-05 -1.7691274937194746e-05 -1.8253149212971917e-05 -1.8846336230381081e-05 -1.9472850127642422e-05 -2.0134867328127684e-05 -2.0834741764690992e-05 -2.1575021730138497e-05 -2.2358468513699318e-05 -2.3188077129160394e-05 -2.4067099474520142e-05 -2.4999070167315208e-05 -2.5987835296080869e-05 -2.7037584511264957e-05 -2.8152887030676908e-05 -2.9338732085684008e-05 -3.0600574285031522e-05 -3.1944384566180235e-05 -3.3376707674365207e-05 -3.4904727155770272e-05 -3.6536338809182868e-05 -3.8280233779398617e-05 -4.0145992908552506e-05 -4.2144194179514233e-05 -4.4286535154367573e-05 -4.6585972689502215e-05 -4.9056882851116105e-05 -5.1715244412931384e-05 -5.4578849740126324e-05 -5.7667547750518237e-05 -6.1003524703298671e-05 -6.4611629315855011e-05 -6.8519749860532702e-05 -7.2759253110089039e-05 -7.7365497168842528e-05 -8.2378431699184040e-05 -8.7843301792582941e-05 -9.3811476672256666e-05 -1.0034142914264706e-04 -1.0749989588939053e-04 -1.1536325596198877e-04 -1.2401917523372034e-04 -1.3356857519372789e-04 -1.4412799727787931e-04 -1.5583245315848977e-04 -1.6883887492734155e-04 -1.8333030672823151e-04 -1.9952101718378996e-04 -2.1766276139910254e-04 -2.3805248208782305e-04 -2.6104181914694016e-04 -2.8704890232957286e-04 -3.1657303533061669e-04 -3.5021305260928524e-04 -3.8869035635322776e-04 -4.3287792916992852e-04 -4.8383698322146076e-04 -5.4286336619791887e-04 -6.1154640139532630e-04 -6.9184348064113251e-04 -7.8617440483748347e-04 -8.9754002025293719e-04 -1.0296697873645828e-03 -1.1872018228018537e-03 -1.3758951982614158e-03 -1.6028650123495235e-03 -1.8768105183397878e-03 -2.2081651980629235e-03 -2.6090160163038389e-03 -3.0924785785907769e-03 -3.6708776645541469e-03 -4.3512165064231202e-03 -5.1234132924975863e-03 -5.9238417444140079e-03 -6.4977916788951286e-03 -5.8296813206289459e-03 1.6074609908059163e-04 2.6869580610061752e-02 1.2406158002379128e-01 4.0980148427851065e-01 1.0000000000000000e+00 0.0000000000000000e+00 -7.9374581306402698e-06 -9.4464033516553637e-06 -9.7922867736145195e-06 -9.8775237725608918e-06 -9.9141751949600563e-06 -9.9467381095584192e-06 -9.9838804724405509e-06 -1.0027247058480903e-05 -1.0077197334635613e-05 -1.0133875184202479e-05 -1.0197398904504425e-05 -1.0267894014645095e-05 -1.0345499148767395e-05 -1.0430367487685788e-05 -1.0522667480119745e-05 -1.0622583492242110e-05 -1.0730316512454803e-05 -1.0846084932404069e-05 -1.0970125388681317e-05 -1.1102693651914297e-05 -1.1244065579169861e-05 -1.1394538166243939e-05 -1.1554430722623992e-05 -1.1724086159976939e-05 -1.1903872375577969e-05 -1.2094183737185570e-05 -1.2295442703722935e-05 -1.2508101608882559e-05 -1.2732644602884207e-05 -1.2969589737713095e-05 -1.3219491213739049e-05 -1.3482941841207254e-05 -1.3760575758347019e-05 -1.4053071400451990e-05 -1.4361154696346567e-05 -1.4685602511747163e-05 -1.5027246411689183e-05 -1.5386976807192019e-05 -1.5765747497589060e-05 -1.6164580601693994e-05 -1.6584571922105902e-05 -1.7026896837724797e-05 -1.7492816795574435e-05 -1.7983686414012263e-05 -1.8500961218847274e-05 -1.9046206119745533e-05 -1.9621104781829332e-05 -2.0227469989776208e-05 -2.0867255035612588e-05 -2.1542566210008233e-05 -2.2255676590314858e-05 -2.3009041340472640e-05 -2.3805314656892633e-05 -2.4647368479224112e-05 -2.5538313210007177e-05 -2.6481520791187969e-05 -2.7480650430828068e-05 -2.8539677200380437e-05 -2.9662923834518865e-05 -3.0855096267680346e-05 -3.2121323477109864e-05 -3.3467202109044442e-05 -3.4898846441712054e-05 -3.6422944515225449e-05 -3.8046821409443923e-05 -3.9778510595221307e-05 -4.1626834383783268e-05 -4.3601494900781758e-05 -4.5713177320320286e-05 -4.7973667117591308e-05 -5.0395983306098107e-05 -5.2994530282955799e-05 -5.5785271461528876e-05 -5.8785928013492339e-05 -6.2016206521260715e-05 -6.5498060619288494e-05 -6.9255992846104159e-05 -7.3317403339586383e-05 -7.7712992967055779e-05 -8.2477230918637663e-05 -8.7648899229632581e-05 -9.3271728109339905e-05 -9.9395138336608803e-05 -1.0607511165051508e-04 -1.1337521485980771e-04 -1.2136780759686615e-04 -1.3013547027081936e-04 -1.3977269827996757e-04 -1.5038791835682931e-04 -1.6210589487274278e-04 -1.7507061109102491e-04 -1.8944873056148489e-04 -2.0543376769463731e-04 -2.2325112914482200e-04 -2.4316422783477883e-04 -2.6548191922195048e-04 -2.9056757237084363e-04 -3.1885016672896139e-04 -3.5083789852368986e-04 -3.8713489799647625e-04 -4.2846179953400843e-04 -4.7568106616643609e-04 -5.2982815017671512e-04 -5.9214975177317923e-04 -6.6415057637776167e-04 -7.4765002012514817e-04 -8.4484997667330446e-04 -9.5841417971102914e-04 -1.0915576799904296e-03 -1.2481413000920501e-03 -1.4327586713724783e-03 -1.6507901009893263e-03 -1.9083736944373163e-03 -2.2122029285644735e-03 -2.5689900452929965e-03 -2.9843151674536347e-03 -3.4603491629901020e-03 -3.9913050218875973e-03 -4.5529235393400730e-03 -5.0701412004750604e-03 -5.2893251315615378e-03 -4.2282495596489946e-03 2.0909476420738291e-03 2.8831298267758546e-02 1.2536845332892882e-01 4.0973679611839481e-01 1.0000000000000000e+00 0.0000000000000000e+00 -8.9482448006432673e-06 -1.0646378287720230e-05 -1.1035422057109411e-05 -1.1131238045075692e-05 -1.1172408224485209e-05 -1.1208975727979020e-05 -1.1250685149728926e-05 -1.1299383972593773e-05 -1.1355474931514433e-05 -1.1419118663229044e-05 -1.1490447197004220e-05 -1.1569600735854359e-05 -1.1656734202513251e-05 -1.1752018793865675e-05 -1.1855642761655860e-05 -1.1967812131389322e-05 -1.2088751486909789e-05 -1.2218704830602060e-05 -1.2357936502389065e-05 -1.2506732156806533e-05 -1.2665399826869866e-05 -1.2834271108752665e-05 -1.3013702474163398e-05 -1.3204076691369663e-05 -1.3405804344445874e-05 -1.3619325474516877e-05 -1.3845111381862774e-05 -1.4083666604204990e-05 -1.4335531056888762e-05 -1.4601282330349805e-05 -1.4881538181232096e-05 -1.5176959271990511e-05 -1.5488252180312875e-05 -1.5816172658929901e-05 -1.6161529138849371e-05 -1.6525186526885411e-05 -1.6908070376550448e-05 -1.7311171472959811e-05 -1.7735550824836059e-05 -1.8182345075550443e-05 -1.8652772410137946e-05 -1.9148139053753999e-05 -1.9669846403642982e-05 -2.0219398800968185e-05 -2.0798412004727349e-05 -2.1408622512707803e-05 -2.2051897866037510e-05 -2.2730247992517554e-05 -2.3445837629887804e-05 -2.4200999971305313e-05 -2.4998251757488907e-05 -2.5840309993919104e-05 -2.6730110401941288e-05 -2.7670827777457410e-05 -2.8665898571341670e-05 -2.9719046024153612e-05 -3.0834308091314230e-05 -3.2016068411001608e-05 -3.3269090760117503e-05 -3.4598557573389650e-05 -3.6010113029683238e-05 -3.7509911174219175e-05 -3.9104669757348605e-05 -4.0801730713018703e-05 -4.2609128201417037e-05 -4.4535665106725608e-05 -4.6590999162847470e-05 -4.8785740289759569e-05 -5.1131560842382432e-05 -5.3641320474371640e-05 -5.6329207717940100e-05 -5.9210901059310577e-05 -6.2303752678581682e-05 -6.5626998207861745e-05 -6.9201996478775258e-05 -7.3052504307995339e-05 -7.7204992339602039e-05 -8.1689008761929506e-05 -8.6537598832559388e-05 -9.1787789803631479e-05 -9.7481152904266082e-05 -1.0366445633212622e-04 -1.1039042568418271e-04 -1.1771863135558102e-04 -1.2571652672378004e-04 -1.3446066608525584e-04 -1.4403813693319152e-04 -1.5454824819483357e-04 -1.6610452531764833e-04 -1.7883707415650905e-04 -1.9289538858257091e-04 -2.0845169284037715e-04 -2.25