<?xml version='1.0' encoding='utf-8'?>
<VTKFile type="UnstructuredGrid" version="0.1" byte_order="LittleEndian">
  <UnstructuredGrid>
    <Piece NumberOfPoints="16384" NumberOfCells="16129">
      <PointData>
        <DataArray type="Float64" Name="velocity_u" NumberOfComponents="1">0.0000000000000000e+00 0.0000000000000000e+00 0.0000000000000000e+00 0.0000000000000000e+00 0.0000000000000000e+00 0.0000000000000000e+00 0.0000000000000000e+00 0.0000000000000000e+00 0.0000000000000000e+00 0.0000000000000000e+00 0.0000000000000000e+00 0.0000000000000000e+00 0.0000000000000000e+00 0.0000000000000000e+00 0.0000000000000000e+00 0.0000000000000000e+00 0.0000000000000000e+00 0.0000000000000000e+00 0.0000000000000000e+00 0.0000000000000000e+00 0.0000000000000000e+00 0.0000000000000000e+00 0.0000000000000000e+00 0.0000000000000000e+00 0.0000000000000000e+00 0.0000000000000000e+00 0.0000000000000000e+00 0.0000000000000000e+00 0.0000000000000000e+00 0.0000000000000000e+00 0.0000000000000000e+00 0.0000000000000000e+00 0.0000000000000000e+00 0.0000000000000000e+00 0.0000000000000000e+00 0.0000000000000000e+00 0.0000000000000000e+00 0.0000000000000000e+00 0.0000000000000000e+00 0.0000000000000000e+00 0.0000000000000000e+00 0.0000000000000000e+00 0.0000000000000000e+00 0.0000000000000000e+00 0.0000000000000000e+00 0.0000000000000000e+00 0.0000000000000000e+00 0.0000000000000000e+00 0.0000000000000000e+00 0.0000000000000000e+00 0.0000000000000000e+00 0.0000000000000000e+00 0.0000000000000000e+00 0.0000000000000000e+00 0.0000000000000000e+00 0.0000000000000000e+00 0.0000000000000000e+00 0.0000000000000000e+00 0.0000000000000000e+00 0.0000000000000000e+00 0.0000000000000000e+00 0.0000000000000000e+00 0.0000000000000000e+00 0.0000000000000000e+00 0.0000000000000000e+00 0.0000000000000000e+00 0.0000000000000000e+00 0.0000000000000000e+00 0.0000000000000000e+00 0.0000000000000000e+00 0.0000000000000000e+00 0.0000000000000000e+00 0.0000000000000000e+00 0.0000000000000000e+00 0.0000000000000000e+00 0.0000000000000000e+00 0.0000000000000000e+00 0.0000000000000000e+00 0.0000000000000000e+00 0.0000000000000000e+00 0.0000000000000000e+00 0.0000000000000000e+00 0.0000000000000000e+00 0.0000000000000000e+00 0.0000000000000000e+00 0.0000000000000000e+00 0.0000000000000000e+00 0.0000000000000000e+00 0.0000000000000000e+00 0.0000000000000000e+00 0.0000000000000000e+00 0.0000000000000000e+00 0.0000000000000000e+00 0.0000000000000000e+00 0.0000000000000000e+00 0.0000000000000000e+00 0.0000000000000000e+00 0.0000000000000000e+00 0.0000000000000000e+00 0.0000000000000000e+00 0.0000000000000000e+00 0.0000000000000000e+00 0.0000000000000000e+00 0.0000000000000000e+00 0.0000000000000000e+00 0.0000000000000000e+00 0.0000000000000000e+00 0.0000000000000000e+00 0.0000000000000000e+00 0.0000000000000000e+00 0.0000000000000000e+00 0.0000000000000000e+00 0.0000000000000000e+00 0.0000000000000000e+00 0.0000000000000000e+00 0.0000000000000000e+00 0.0000000000000000e+00 0.0000000000000000e+00 0.0000000000000000e+00 0.0000000000000000e+00 0.0000000000000000e+00 0.0000000000000000e+00 0.0000000000000000e+00 0.0000000000000000e+00 0.0000000000000000e+00 0.0000000000000000e+00 0.0000000000000000e+00 1.0000000000000000e+00 0.0000000000000000e+00 -1.2276285314087283e-06 -1.9721003315840925e-06 -2.3194335542770223e-06 -2.4582084471720030e-06 -2.5089293291225367e-06 -2.5285922309059130e-06 -2.5397120989544258e-06 -2.5499559387250477e-06 -2.5615569588668108e-06 -2.5750345747437167e-06 -2.5904578812406455e-06 -2.6078146532066878e-06 -2.6270987944192011e-06 -2.6483224497368443e-06 -2.6715127650143879e-06 -2.6967077858838007e-06 -2.7239538284735476e-06 -2.7533040694831063e-06 -2.7848178532756900e-06 -2.8185603936673025e-06 -2.8546027211797969e-06 -2.8930218091805988e-06 -2.9339008206188757e-06 -2.9773294105331687e-06 -3.0234040461002364e-06 -3.0722283568756956e-06 -3.1239135532001719e-06 -3.1785789241669893e-06 -3.2363523834979874e-06 -3.2973710306516484e-06 -3.3617817420656601e-06 -3.4297418446641853e-06 -3.5014198988418398e-06 -3.5769965572900744e-06 -3.6566654499926676e-06 -3.7406341033361640e-06 -3.8291249652849827e-06 -3.9223765949430360e-06 -4.0206449959096854e-06 -4.1242050318678797e-06 -4.2333519183987766e-06 -4.3484028661418956e-06 -4.4696989462729758e-06 -4.5976071656564144e-06 -4.7325226988917020e-06 -4.8748712967699722e-06 -5.0251119787880062e-06 -5.1837400892504567e-06 -5.3512906832489024e-06 -5.5283421815093494e-06 -5.7155203536239043e-06 -5.9135027991699181e-06 -6.1230240358559892e-06 -6.3448811615736511e-06 -6.5799400587020977e-06 -6.8291422732014142e-06 -7.0935127904801406e-06 -7.3741688144405531e-06 -7.6723295393367929e-06 -7.9893270177606499e-06 -8.3266184377549502e-06 -8.6858001118086056e-06 -9.0686232818835807e-06 -9.4770118330465827e-06 -9.9130822922138959e-06 -1.0379166684279967e-05 -1.0877838671393557e-05 -1.1411943259461771e-05 -1.1984630609648900e-05 -1.2599394867161430e-05 -1.3260118923212510e-05 -1.3971125865208290e-05 -1.4737238147412824e-05 -1.5563846110274095e-05 -1.6456987711605992e-05 -1.7423441284581626e-05 -1.8470833601185280e-05 -1.9607766444961561e-05 -2.0843965402097382e-05 -2.2190454903175200e-05 -2.3659764936692711e-05 -2.5266176894794072e-05 -2.7026016949413114e-05 -2.8958006053306226e-05 -3.1083679073213711e-05 -3.3427890930329515e-05 -3.6019431119164587e-05 -3.8891770935118157e-05 -4.2083975762424409e-05 -4.5641827119008063e-05 -4.9619210825406781e-05 -5.4079842032348071e-05 -5.9099422130225406e-05 -6.4768355163606140e-05 -7.1195191211741548e-05 -7.8511021592081199e-05 -8.6875134166897275e-05 -9.6482350205455512e-05 -1.0757262442621914e-04 -1.2044372544392605e-04 -1.3546815564071115e-04 -1.5311597148817468e-04 -1.7398592309576119e-04 -1.9884848908395642e-04 -2.2870617515706947e-04 -2.6487928370934143e-04 -3.0912995745660836e-04 -3.6384490339620381e-04 -4.3231011635863213e-04 -5.1913346108892731e-04 -6.3091134417479582e-04 -7.7730961036635209e-04 -9.7286536584660784e-04 -1.2400649168068994e-03 -1.6146771803418377e-03 -2.1549280394170933e-03 -2.9565305103099546e-03 -4.1741472784753899e-03 -6.0410939476653915e-03 -8.8488023615633012e-03 -1.2764681757909320e-02 -1.7165632638203497e-02 -1.8652831768075438e-02 -5.1879965228201295e-03 6.3674660065473759e-02 3.2031477963624855e-01 1.0000000000000000e+00 0.0000000000000000e+00 -3.1984566919477054e-06 -4.8610808927387843e-06 -5.6474604881215166e-06 -5.9760344288135836e-06 -6.1042278216482597e-06 -6.1575856156175168e-06 -6.1882203052871448e-06 -6.2151085979782838e-06 -6.2443696068377630e-06 -6.2777324233714981e-06 -6.3156115470872061e-06 -6.3580947731068597e-06 -6.4052210998673970e-06 -6.4570447394157364e-06 -6.5136434202197527e-06 -6.5751155814708889e-06 -6.6415770762442914e-06 -6.7131590813481175e-06 -6.7900070377154491e-06 -6.8722802800587984e-06 -6.9601521298808077e-06 -7.0538103018599274e-06 -7.1534575019794878e-06 -7.2593121328770396e-06 -7.3716090858807996e-06 -7.4906006509337339e-06 -7.6165575727790339e-06 -7.7497702383777070e-06 -7.8905499580045353e-06 -8.0392303349646284e-06 -8.1961687686396418e-06 -8.3617481365228964e-06 -8.5363786489091660e-06 -8.7204998351274007e-06 -8.9145826579199280e-06 -9.1191318260345061e-06 -9.3346883894151824e-06 -9.5618326313452091e-06 -9.8011872059388745e-06 -1.0053420499373797e-05 -1.0319250288202053e-05 -1.0599447806299106e-05 -1.0894842265485909e-05 -1.1206325803261135e-05 -1.1534858867581157e-05 -1.1881476150945788e-05 -1.2247293207906159e-05 -1.2633513795893244e-05 -1.3041437917328503e-05 -1.3472470632507925e-05 -1.3928131856303082e-05 -1.4410067349377395e-05 -1.4920060974014616e-05 -1.5460048233308411e-05 -1.6032131264800158e-05 -1.6638595621879420e-05 -1.7281929132746794e-05 -1.7964842989691679e-05 -1.8690295277600902e-05 -1.9461517390574298e-05 -2.0282043887553737e-05 -2.1155746194851741e-05 -2.2086870507903535e-05 -2.3080080525539696e-05 -2.4140505976916286e-05 -2.5273797894646662e-05 -2.6486191454579614e-05 -2.7784577442709649e-05 -2.9176583939062252e-05 -3.0670670060795663e-05 -3.2276233562318019e-05 -3.4003734414601697e-05 -3.5864837350304919e-05 -3.7872577037000220e-05 -4.0041549724474693e-05 -4.2388135783665929e-05 -4.4930759115647232e-05 -4.7690191075322827e-05 -5.0689907485407311e-05 -5.3956508534667186e-05 -5.7520214314193330e-05 -6.1415452797788407e-05 -6.5681560519477089e-05 -7.0363619628691771e-05 -7.5513461018435836e-05 -8.1190872491136793e-05 -8.7465061497851547e-05 -9.4416433787909387e-05 -1.0213876577890810e-04 -1.1074187181824337e-04 -1.2035489729269957e-04 -1.3113040713592664e-04 -1.4324949240686219e-04 -1.5692818930767061e-04 -1.7242560144659604e-04 -1.9005425057926648e-04 -2.1019336797786623e-04 -2.3330609777096051e-04 -2.5996195359490672e-04 -2.9086640314797462e-04 -3.2690022412514155e-04 -3.6917240729202288e-04 -4.1909207743345475e-04 -4.7846746398126866e-04 -5.4964389570869661e-04 -6.3569898070799558e-04 -7.4072301025095329e-04 -8.7022873194314327e-04 -1.0317614861920503e-03 -1.2358263934988496e-03 -1.4973284890825143e-03 -1.8378603426733940e-03 -2.2894119950499854e-03 -2.9004739007796772e-03 -3.7460640059125633e-03 -4.9436517422912938e-03 -6.6758771783985409e-03 -9.2135980368225692e-03 -1.2905805405771053e-02 -1.8024884596931808e-02 -2.4163024685880719e-02 -2.8453077138605731e-02 -2.1028205029756459e-02 2.5294634034844887e-02 1.7235914983161507e-01 5.0835017267510452e-01 1.0000000000000000e+00 0.0000000000000000e+00 -5.5126461119991427e-06 -8.1835019472369719e-06 -9.4360540463951185e-06 -9.9665006784109172e-06 -1.0179924914507436e-05 -1.0272500037107075e-05 -1.0326759024448278e-05 -1.0373636157665532e-05 -1.0423611656603747e-05 -1.0479921006286958e-05 -1.0543490723971900e-05 -1.0614597695134803e-05 -1.0693373972679929e-05 -1.0779943527580086e-05 -1.0874452875901429e-05 -1.0977074864341182e-05 -1.1088007264702035e-05 -1.1207471262869726e-05 -1.1335710682908004e-05 -1.1472991896735828e-05 -1.1619604255259095e-05 -1.1775860884020478e-05 -1.1942099713919822e-05 -1.2118684676725009e-05 -1.2306007067415797e-05 -1.2504487108971198e-05 -1.2714575730009474e-05 -1.2936756524010349e-05 -1.3171547862473639e-05 -1.3419505184473941e-05 -1.3681223520472273e-05 -1.3957340283264459e-05 -1.4248538306579223e-05 -1.4555549110731584e-05 -1.4879156438849980e-05 -1.5220200160173265e-05 -1.5579580605829471e-05 -1.5958263322472682e-05 -1.6357284209219567e-05 -1.6777755081731213e-05 -1.7220869790614951e-05 -1.7687911003829891e-05 -1.8180257676654789e-05 -1.8699393210618158e-05 -1.9246914390661169e-05 -1.9824541270527180e-05 -2.0434128136353227e-05 -2.1077675586766592e-05 -2.1757343790249817e-05 -2.2475467127037715e-05 -2.3234570507282273e-05 -2.4037387568235989e-05 -2.4886880843990719e-05 -2.5786264081120334e-05 -2.6739027078869985e-05 -2.7748963504312053e-05 -2.8820202019957859e-05 -2.9957241026413564e-05 -3.1164987528205343e-05 -3.2448800851894056e-05 -3.3814541921661522e-05 -3.5268628697007223e-05 -3.6818098562448092e-05 -3.8470678866215368e-05 -4.0234867002486861e-05 -4.2120021357316919e-05 -4.4136464569943799e-05 -4.6295601118114537e-05 -4.8610051762627805e-05 -5.1093807550303924e-05 -5.3762406336261423e-05 -5.6633135633629041e-05 -5.9725266642008178e-05 -6.3060324983302607e-05 -6.6662404376724278e-05 -7.0558530936892431e-05 -7.4779087767181269e-05 -7.9358311474016875e-05 -8.4334874477697810e-05 -8.9752570103050994e-05 -9.5661121189846276e-05 -1.0211713753446698e-04 -1.0918525394927978e-04 -1.1693948899122662e-04 -1.2546487334828788e-04 -1.3485940813143981e-04 -1.4523643027379717e-04 -1.5672748440636358e-04 -1.6948582618416189e-04 -1.8369071548707133e-04 -1.9955270558904648e-04 -2.1732019702915727e-04 -2.3728760515764018e-04 -2.5980559993671044e-04 -2.8529402812323129e-04 -3.1425833308774905e-04 -3.4731056922743166e-04 -3.8519650344276835e-04 -4.2883085402014795e-04 -4.7934350889040900e-04 -5.3814070528341717e-04 -6.0698681736316056e-04 -6.8811485364968889e-04 -7.8437743694970651e-04 -8.9945561740376067e-04 -1.0381514668101183e-03 -1.2068038657083633e-03 -1.4138883475343581e-03 -1.6708965940546497e-03 -1.9936481955020583e-03 -2.4042816622201696e-03 -2.9343267636048088e-03 -3.6295049560437342e-03 -4.5572445284150793e-03 -5.8181885857094265e-03 -7.5624918516546949e-03 -1.0007864357707192e-02 -1.3441443485749167e-02 -1.8141966055788574e-02 -2.4039376724800159e-02 -2.9660333087987368e-02 -2.9408744165460986e-02 -7.6564493296186319e-03 7.0743931318976799e-02 2.6283850989918411e-01 6.0322834963274186e-01 1.0000000000000000e+00 0.0000000000000000e+00 -7.9584152919202873e-06 -1.1685275738444160e-05 -1.3414890785310956e-05 -1.4148094836640157e-05 -1.4446787439681425e-05 -1.4579302307447864e-05 -1.4658327605990126e-05 -1.4726449318500755e-05 -1.4798398426774899e-05 -1.4878917122973662e-05 -1.4969477426784025e-05 -1.5070578601716516e-05 -1.5182470456149729e-05 -1.5305363470062350e-05 -1.5439484272301953e-05 -1.5585088190324730e-05 -1.5742461191777204e-05 -1.5911919842322571e-05 -1.6093811338533158e-05 -1.6288513999689291e-05 -1.6496438204534415e-05 -1.6718027669761510e-05 -1.6953760977894988e-05 -1.7204153323274063e-05 -1.7469758501915558e-05 -1.7751171174768946e-05 -1.8049029392042578e-05 -1.8364017342190505e-05 -1.8696868321411679e-05 -1.9048367975131886e-05 -1.9419357873940512e-05 -1.9810739439797883e-05 -2.0223478201879177e-05 -2.0658608393441038e-05 -2.1117237971546963e-05 -2.1600554158697466e-05 -2.2109829542915775e-05 -2.2646428714756549e-05 -2.3211815455628006e-05 -2.3807560589030421e-05 -2.4435350644192331e-05 -2.5096997415628814e-05 -2.5794448435042101e-05 -2.6529798415804143e-05 -2.7305301839184635e-05 -2.8123386879600742e-05 -2.8986670784869009e-05 -2.9897976783354523e-05 -3.0860352693693803e-05 -3.1877091553716472e-05 -3.2951754580170507e-05 -3.4088196651538047e-05 -3.5290594498872036e-05 -3.6563477975434062e-05 -3.7911764942923867e-05 -3.9340800274169496e-05 -4.0856399379643475e-05 -4.2464896785914339e-05 -4.4173200568971539e-05 -4.5988853559641655e-05 -4.7920102155337651e-05 -4.9975973641888998e-05 -5.2166363315807752e-05 -5.4502133059169464e-05 -5.6995223069185389e-05 -5.9658778493738634e-05 -6.2507293195795201e-05 -6.5556773542903066e-05 -6.8824925497384666e-05 -7.2331368546260536e-05 -7.6097880769759521e-05 -8.0148680518316631e-05 -8.4510751095249136e-05 -8.9214215648189711e-05 -9.4292771022022701e-05 -9.9784191582223127e-05 -1.0573091604477028e-04 -1.1218073243231139e-04 -1.1918757991827853e-04 -1.2681249136956211e-04 -1.3512470508121838e-04 -1.4420297920134545e-04 -1.5413715086967699e-04 -1.6502999417081991e-04 -1.7699944344396059e-04 -1.9018126261500078e-04 -2.0473226275538240e-04 -2.2083419949821593e-04 -2.3869851604673353e-04 -2.5857214104173574e-04 -2.8074461205341509e-04 -3.0555687590032760e-04 -3.3341221971747365e-04 -3.6478992712458193e-04 -4.0026244580331275e-04 -4.4051710890995405e-04 -4.8638380429194951e-04 -5.3887047616015210e-04 -5.9920902420437046e-04 -6.6891512136897093e-04 -7.4986683726431405e-04 -8.4440891434941785e-04 -9.5549238844113034e-04 -1.0868634304160478e-03 -1.2433215069050194e-03 -1.4310763126531487e-03 -1.6582471744560903e-03 -1.9355705580875787e-03 -2.2774153718523489e-03 -2.7032588849345896e-03 -3.2398582444974709e-03 -3.9244750352744650e-03 -4.8096730149241179e-03 -5.9703483929861613e-03 -7.5134592681474583e-03 -9.5892829497940309e-03 -1.2396482342721331e-02 -1.6152249499121162e-02 -2.0940238103894306e-02 -2.6206582070408661e-02 -2.9384333209882898e-02 -2.2711936135998406e-02 1.2619610685991274e-02 1.1256328307341155e-01 3.2211869729005788e-01 6.4827306762815251e-01 1.0000000000000000e+00 0.0000000000000000e+00 -1.0444358950175824e-05 -1.5249179175868952e-05 -1.7461541354533549e-05 -1.8396869695725590e-05 -1.8779335049026966e-05 -1.8950949923020743e-05 -1.9054548930719335e-05 -1.9144080182291567e-05 -1.9238317713518740e-05 -1.9343411195768229e-05 -1.9461343419486654e-05 -1.9592829766718516e-05 -1.9738241195348612e-05 -1.9897879976067680e-05 -2.0072057492953036e-05 -2.0261115072776484e-05 -2.0465429428891096e-05 -2.0685414363433067e-05 -2.0921521843635326e-05 -2.1174243236734534e-05 -2.1444110850287405e-05 -2.1731699755373941e-05 -2.2037629860749362e-05 -2.2362568253310100e-05 -2.2707231845578852e-05 -2.3072390343508854e-05 -2.3458869505613551e-05 -2.3867554668687005e-05 -2.4299394571158297e-05 -2.4755405549077938e-05 -2.5236676159211118e-05 -2.5744372228042141e-05 -2.6279742316206523e-05 -2.6844123646805657e-05 -2.7438948602615191e-05 -2.8065751876122296e-05 -2.8726178286588993e-05 -2.9421991264855089e-05 -3.0155082085204965e-05 -3.0927480002580899e-05 -3.1741363431429997e-05 -3.2599072218377902e-05 -3.3503121048995190e-05 -3.4456214129408496e-05 -3.5461261372038316e-05 -3.6521396279458011e-05 -3.7639995636080942e-05 -3.8820701150042985e-05 -4.0067443337378603e-05 -4.1384468022555209e-05 -4.2776365750568861e-05 -4.4248104330679377e-05 -4.5805064849287316e-05 -4.7453081705103506e-05 -4.9198487281823628e-05 -5.1048161775678008e-05 -5.3009588714505795e-05 -5.5090916960646630e-05 -5.7301030224084865e-05 -5.9649625106953706e-05 -6.2147298678921466e-05 -6.4805646870373673e-05 -6.7637375420445846e-05 -7.0656425322220744e-05 -7.3878114727117305e-05 -7.7319299596628291e-05 -8.0998556098585406e-05 -8.4936388322758607e-05 -8.9155465173384861e-05 -9.3680890870263977e-05 -9.8540514676960964e-05 -1.0376528668551167e-04 -1.0938966731900101e-04 -1.1545209939533402e-04 -1.2199555382410165e-04 -1.2906816264247539e-04 -1.3672395533907654e-04 -1.4502371706374550e-04 -1.5403599171512870e-04 -1.6383825871683097e-04 -1.7451831831476574e-04 -1.8617592697226033e-04 -1.9892473397517153e-04 -2.1289458344640765e-04 -2.2823426162114642e-04 -2.4511478780601449e-04 -2.6373337178884574e-04 -2.8431819285558945e-04 -3.0713419663183872e-04 -3.3249015836018598e-04 -3.6074733029694785e-04 -3.9233008145500613e-04 -4.2773905659640590e-04 -4.6756753999565795e-04 -5.1252192127984532e-04 -5.6344744374873851e-04 -6.2136080139850751e-04 -6.8749167868316146e-04 -7.6333604923397962e-04 -8.5072505348010282e-04 -9.5191468108256404e-04 -1.0697034595959017e-03 -1.2075881596434949e-03 -1.3699715529891124e-03 -1.5624420608516610e-03 -1.7921535591339623e-03 -2.0683459170370683e-03 -2.4030648504405642e-03 -2.8121659405994318e-03 -3.3167254013455813e-03 -3.9450320226573849e-03 -4.7353974210684801e-03 -5.7400662531809357e-03 -7.0304127631896788e-03 -8.7029497568354292e-03 -1.0883103450981700e-02 -1.3715301927302212e-02 -1.7303349281617433e-02 -2.1500548591142841e-02 -2.5301494931972465e-02 -2.5318808316229836e-02 -1.2568746902166087e-02 3.2600483933085511e-02 1.4361815727808924e-01 3.5588711114351734e-01 6.6710896049454904e-01 1.0000000000000000e+00 0.0000000000000000e+00 -1.2936059976295743e-05 -1.8826581076857396e-05 -2.1524394989520091e-05 -2.2661476582350422e-05 -2.3126552157536939e-05 -2.3336317599920215e-05 -2.3463931885949167e-05 -2.3574599101229846e-05 -2.3691003643973592e-05 -2.3820613259672000e-05 -2.3965874060764147e-05 -2.4127696135183404e-05 -2.4306563383034239e-05 -2.4502867424359714e-05 -2.4717004064170459e-05 -2.4949400806572435e-05 -2.5200525191210178e-05 -2.5470888053522664e-05 -2.5761045617195395e-05 -2.6071601489474701e-05 -2.6403208829221766e-05 -2.6756572740369701e-05 -2.7132452920831340e-05 -2.7531666618847956e-05 -2.7955091938996539e-05 -2.8403671492739328e-05 -2.8878416362538407e-05 -2.9380410384425291e-05 -2.9910814816661622e-05 -3.0470873478465875e-05 -3.1061918393113043e-05 -3.1685375923632547e-05 -3.2342773413167687e-05 -3.3035746414148112e-05 -3.3766046617682711e-05 -3.4535550543943415e-05 -3.5346269003613340e-05 -3.6200357377018460e-05 -3.7100126849942504e-05 -3.8048056775942934e-05 -3.9046808265948168e-05 -4.0099239045604373e-05 -4.1208419679629993e-05 -4.2377651384345664e-05 -4.3610485681779866e-05 -4.4910746066509850e-05 -4.6282551815099021e-05 -4.7730344176422380e-05 -4.9258915323165517e-05 -5.0873440443684941e-05 -5.2579513254538079e-05 -5.4383185241113611e-05 -5.6291009138625959e-05 -5.8310087322213495e-05 -6.0448125727623219e-05 -6.2713493860155483e-05 -6.5115291622702633e-05 -6.7663423994828050e-05 -7.0368684709036080e-05 -7.3242850018399351e-05 -7.6298783795601509e-05 -7.9550555643947163e-05 -8.3013574057396114e-05 -8.6704736736038877e-05 -9.0642600331619259e-05 -9.4847572509766776e-05 -9.9342129938464880e-05 -1.0415106621473572e-04 -1.0930177414196649e-04 -1.1482456773554350e-04 -1.2075305064030696e-04 -1.2712453869455332e-04 -1.3398054541982155e-04 -1.4136734098835110e-04 -1.4933659761765569e-04 -1.5794613679239898e-04 -1.6726079653343144e-04 -1.7735344076179660e-04 -1.8830613738045877e-04 -2.0021153697975477e-04 -2.1317449123922722e-04 -2.2731395939545846e-04 -2.4276526138503244e-04 -2.5968274856990421e-04 -2.7824298052290961e-04 -2.9864851898588106e-04 -3.2113247592495880e-04 -3.4596398539012851e-04 -3.7345481417318130e-04 -4.0396738365615099e-04 -4.3792454609892716e-04 -4.7582155265539207e-04 -5.1824077563212721e-04 -5.6586990888917333e-04 -6.1952458245281838e-04 -6.8017661221241369e-04 -7.4898948501003326e-04 -8.2736318655668363e-04 -9.1699116619850692e-04 -1.0199331656680207e-03 -1.1387089093145802e-03 -1.2764193944429171e-03 -1.4369049178596226e-03 -1.6249522763542629e-03 -1.8465681304540578e-03 -2.1093417833059455e-03 -2.4229291618599524e-03 -2.7997012293307349e-03 -3.2556148619247902e-03 -3.8113818828307551e-03 -4.4940286729404696e-03 -5.3389401185020982e-03 -6.3924195138679177e-03 -7.7145167517067978e-03 -9.3809025494113289e-03 -1.1479464670875144e-02 -1.4088037480529671e-02 -1.7193896895282560e-02 -2.0450563625877296e-02 -2.2526034380117483e-02 -1.9565646649553448e-02 -2.1688401917862878e-03 4.8847706710454249e-02 1.6387441709686709e-01 3.7273724319965829e-01 6.7251863576736259e-01 1.0000000000000000e+00 0.0000000000000000e+00 -1.5421628169027069e-05 -2.2398486365359003e-05 -2.5582363495540772e-05 -2.6920928688430485e-05 -2.7467921961833416e-05 -2.7715143230573399e-05 -2.7866231104068507e-05 -2.7997641775762602e-05 -2.8135916179987677e-05 -2.8289788421588083e-05 -2.8462132286186904e-05 -2.8654031522846728e-05 -2.8866071594519031e-05 -2.9098727547750193e-05 -2.9352476422321136e-05 -2.9627829914479664e-05 -2.9925344813405512e-05 -3.0245627438964167e-05 -3.0589336576982988e-05 -3.0957186157512665e-05 -3.1349948017736213e-05 -3.1768454857809917e-05 -3.2213603465670058e-05 -3.2686358282746982e-05 -3.3187755342796949e-05 -3.3718906567482005e-05 -3.4281004403855677e-05 -3.4875326847570765e-05 -3.5503242944883465e-05 -3.6166218846804576e-05 -3.6865824425490068e-05 -3.7603740443732111e-05 -3.8381766324347292e-05 -3.9201828630706416e-05 -4.0065990360487151e-05 -4.0976461092634996e-05 -4.1935608014938009e-05 -4.2945967934155790e-05 -4.4010260444289955e-05 -4.5131402402228942e-05 -4.6312523777324884e-05 -4.7556984939665353e-05 -4.8868395565981595e-05 -5.0250635438850947e-05 -5.1707877378199171e-05 -5.3244612456546958e-05 -5.4865677682806584e-05 -5.6576286491773605e-05 -5.8382062461083104e-05 -6.0289076608446290e-05 -6.2303888571450838e-05 -6.4433592111952322e-05 -6.6685865600719590e-05 -6.9069028181457736e-05 -7.1592102218067684e-05 -7.4264882686073342e-05 -7.7098014459525631e-05 -8.0103078680236102e-05 -8.3292689391182176e-05 -8.6680601635338828e-05 -9.0281832558780935e-05 -9.4112797505188864e-05 -9.8191463273016461e-05 -1.0253752077775261e-04 -1.0717257979607690e-04 -1.1212038921756047e-04 -1.1740708677049867e-04 -1.2306148251400897e-04 -1.2911538111194028e-04 -1.3560394914076849e-04 -1.4256613479723520e-04 -1.5004514827326963e-04 -1.5808901258092831e-04 -1.6675119692491738e-04 -1.7609134692548264e-04 -1.8617612808015561e-04 -1.9708020223940082e-04 -2.0888736174463237e-04 -2.2169185057241043e-04 -2.3559990654347502e-04 -2.5073156619996107e-04 -2.6722278465903703e-04 -2.8522793372369519e-04 -3.0492275352941964e-04 -3.2650785084515130e-04 -3.5021286097891037e-04 -3.7630141669364682e-04 -4.0507710024790622e-04 -4.3689060011097496e-04 -4.7214835082647088e-04 -5.1132300349813749e-04 -5.5496616591345664e-04 -6.0372397136850974e-04 -6.5835618595849450e-04 -7.1975976093003994e-04 -7.8899799734677759e-04 -8.6733682676144611e-04 -9.5629015241791699e-04 -1.0576767802034613e-03 -1.1736922339770678e-03 -1.3069997559864181e-03 -1.4608461198866297e-03 -1.6392096129256527e-03 -1.8469897799690048e-03 -2.0902513715192481e-03 -2.3765384504248533e-03 -2.7152787197869616e-03 -3.1183024346052549e-03 -3.6005035402233579e-03 -4.1806698816590293e-03 -4.8824967618577610e-03 -5.7357538176658921e-03 -6.7774439406747605e-03 -8.0524135776924681e-03 -9.6117642148566326e-03 -1.1504155527427834e-02 -1.3745721622325549e-02 -1.6228840073613686e-02 -1.8467114550181931e-02 -1.8942350470978548e-02 -1.3622307096259089e-02 6.8253145916990447e-03 6.0672303532032866e-02 1.7590510666892994e-01 3.7974145637246826e-01 6.7177727414679400e-01 1.0000000000000000e+00 0.0000000000000000e+00 -1.7896848560070981e-05 -2.5957229636895022e-05 -2.9626360752821147e-05 -3.1165975174337830e-05 -3.1794429311864590e-05 -3.2078630802990050e-05 -3.2252749294148045e-05 -3.2404508824245741e-05 -3.2564294165449373e-05 -3.2742083796765275e-05 -3.2941158978417408e-05 -3.3162762163266112e-05 -3.3407570366568754e-05 -3.3676135583843056e-05 -3.3969011772694120e-05 -3.4286791666516484e-05 -3.4630118678695315e-05 -3.4999692149343789e-05 -3.5396270915287638e-05 -3.5820676553450848e-05 -3.6273796672998238e-05 -3.6756588398061413e-05 -3.7270082143721547e-05 -3.7815385759301458e-05 -3.8393689057620251e-05 -3.9006268714658054e-05 -3.9654493554718271e-05 -4.0339830299996205e-05 -4.1063849882836866e-05 -4.1828234368158053e-05 -4.2634784479770571e-05 -4.3485427742278657e-05 -4.4382227325570317e-05 -4.5327391715490782e-05 -4.6323285290991999e-05 -4.7372439837722328e-05 -4.8477567059943872e-05 -4.9641572242471651e-05 -5.0867569244046187e-05 -5.2158896935024351e-05 -5.3519137135588706e-05 -5.4952134177338963e-05 -5.6462016341387135e-05 -5.8053219460212686e-05 -5.9730512884943248e-05 -6.1499027976078406e-05 -6.3364289385570803e-05 -6.5332249542806128e-05 -6.7409326759369147e-05 -6.9602447281292830e-05 -7.1919091663223561e-05 -7.4367346049948477e-05 -7.6955959092476714e-05 -7.9694405165549548e-05 -8.2592954506260081e-05 -8.5662751098253899e-05 -8.8915899435418612e-05 -9.2365561400130865e-05 -9.6026064448385178e-05 -9.9913022477652149e-05 -1.0404347120205981e-04 -1.0843602017737675e-04 -1.1311102367750613e-04 -1.1809077285964200e-04 -1.2339971232234521e-04 -1.2906468483205120e-04 -1.3511520832342689e-04 -1.4158378972428358e-04 -1.4850628121207627e-04 -1.5592228575069770e-04 -1.6387561961455209e-04 -1.7241484058794351e-04 -1.8159385243974913e-04 -1.9147259869450601e-04 -2.0211786076210377e-04 -2.1360417766486505e-04 -2.2601490818902051e-04 -2.3944346111614531e-04 -2.5399472408693739e-04 -2.6978672691425199e-04 -2.8695258246857070e-04 -3.0564275810026021e-04 -3.2602774195231404e-04 -3.4830118159300335e-04 -3.7268358914585819e-04 -3.9942672878706908e-04 -4.2881882892715660e-04 -4.6119079378582965e-04 -4.9692363030392236e-04 -5.3645735821095618e-04 -5.8030173581538776e-04 -6.2904921661402805e-04 -6.8339065620692265e-04 -7.4413442009400573e-04 -8.1222971098094559e-04 -8.8879514823909760e-04 -9.7515390112759993e-04 -1.0728770204213812e-03 -1.1838370474611449e-03 -1.3102745196209491e-03 -1.4548806631184020e-03 -1.6209003821262291e-03 -1.8122606111707418e-03 -2.0337301722323366e-03 -2.2911183573531852e-03 -2.5915202858915890e-03 -2.9436171450548366e-03 -3.3580376344542274e-03 -3.8477812074270354e-03 -4.4286898561968942e-03 -5.1199243990884425e-03 -5.9443330863892061e-03 -6.9284414726281038e-03 -8.1013894799695507e-03 -9.4910336538278194e-03 -1.1112252375018490e-02 -1.2933415103410480e-02 -1.4782409621703749e-02 -1.6093615040393704e-02 -1.5274396467773534e-02 -8.2951844475178012e-03 1.3902477666560787e-02 6.8706649850238014e-02 1.8252475739543708e-01 3.8168115206805592e-01 6.6886702919015995e-01 1.0000000000000000e+00 0.0000000000000000e+00 -2.0359742467392369e-05 -2.9499038962218536e-05 -3.3651678050625541e-05 -3.5391646326410957e-05 -3.6101152070663772e-05 -3.6421969689866214e-05 -3.6618751192781069e-05 -3.6790486048139167e-05 -3.6971401599417637e-05 -3.7172714037616668e-05 -3.7398102937544980e-05 -3.7648960647029958e-05 -3.7926048472727719e-05 -3.8229989717307508e-05 -3.8561410847234745e-05 -3.8920982002830235e-05 -3.9309430001159407e-05 -3.9727544129956954e-05 -4.0176180174868280e-05 -4.0656264108523095e-05 -4.1168795833830080e-05 -4.1714853141849573e-05 -4.2295595995990577e-05 -4.2912271206362711e-05 -4.3566217501622889e-05 -4.4258870996045642e-05 -4.4991771100828436e-05 -4.5766566978603012e-05 -4.6585024623893502e-05 -4.7449034588053422e-05 -4.8360620343511705e-05 -4.9321947337140006e-05 -5.0335332853091645e-05 -5.1403256802004516e-05 -5.2528373490710414e-05 -5.3713524407291163e-05 -5.4961752128046216e-05 -5.6276315529275913e-05 -5.7660706465685641e-05 -5.9118667996509783e-05 -6.0654214239382371e-05 -6.2271652048499722e-05 -6.3975604812592786e-05 -6.5771038630777130e-05 -6.7663291034808089e-05 -6.9658102460351811e-05 -7.1761650825377104e-05 -7.3980589659369977e-05 -7.6322090160934822e-05 -7.8793887519761489e-05 -8.1404331986689125e-05 -8.4162445383311271e-05 -8.7077983770520199e-05 -9.0161506899484009e-05 -9.3424455145835523e-05 -9.6879234930584391e-05 -1.0053931385206911e-04 -1.0441932673428120e-04 -1.0853519383263252e-04 -1.1290425279177337e-04 -1.1754540636794949e-04 -1.2247928806658550e-04 -1.2772844792603176e-04 -1.3331756115364198e-04 -1.3927366304320840e-04 -1.4562641405296701e-04 -1.5240839919672075e-04 -1.5965546662014430e-04 -1.6740711140342639e-04 -1.7570691161696069e-04 -1.8460302445792067e-04 -1.9414875164369753e-04 -2.0440318521269975e-04 -2.1543194684653285e-04 -2.2730803588639380e-04 -2.4011280408002791e-04 -2.5393707858192350e-04 -2.6888245846536964e-04 -2.8506281488834716e-04 -3.0260603156565793e-04 -3.2165602913044868e-04 -3.4237512464760052e-04 -3.6494678858198503e-04 -3.8957887572175110e-04 -4.1650742148975232e-04 -4.4600111311230263e-04 -4.7836657034424832e-04 -5.1395460084785222e-04 -5.5316762968307274e-04 -5.9646854680667498e-04 -6.4439127368284583e-04 -6.9755341765876863e-04 -7.56671465