<?xml version='1.0' encoding='utf-8'?>
<VTKFile type="UnstructuredGrid" version="0.1" byte_order="LittleEndian">
  <UnstructuredGrid>
    <Piece NumberOfPoints="16384" NumberOfCells="16129">
      <PointData>
        <DataArray type="Float64" Name="velocity_u" NumberOfComponents="1">0.0000000000000000e+00 0.0000000000000000e+00 0.0000000000000000e+00 0.0000000000000000e+00 0.0000000000000000e+00 0.0000000000000000e+00 0.0000000000000000e+00 0.0000000000000000e+00 0.0000000000000000e+00 0.0000000000000000e+00 0.0000000000000000e+00 0.0000000000000000e+00 0.0000000000000000e+00 0.0000000000000000e+00 0.0000000000000000e+00 0.0000000000000000e+00 0.0000000000000000e+00 0.0000000000000000e+00 0.0000000000000000e+00 0.0000000000000000e+00 0.0000000000000000e+00 0.0000000000000000e+00 0.0000000000000000e+00 0.0000000000000000e+00 0.0000000000000000e+00 0.0000000000000000e+00 0.0000000000000000e+00 0.0000000000000000e+00 0.0000000000000000e+00 0.0000000000000000e+00 0.0000000000000000e+00 0.0000000000000000e+00 0.0000000000000000e+00 0.0000000000000000e+00 0.0000000000000000e+00 0.0000000000000000e+00 0.0000000000000000e+00 0.0000000000000000e+00 0.0000000000000000e+00 0.0000000000000000e+00 0.0000000000000000e+00 0.0000000000000000e+00 0.0000000000000000e+00 0.0000000000000000e+00 0.0000000000000000e+00 0.0000000000000000e+00 0.0000000000000000e+00 0.0000000000000000e+00 0.0000000000000000e+00 0.0000000000000000e+00 0.0000000000000000e+00 0.0000000000000000e+00 0.0000000000000000e+00 0.0000000000000000e+00 0.0000000000000000e+00 0.0000000000000000e+00 0.0000000000000000e+00 0.0000000000000000e+00 0.0000000000000000e+00 0.0000000000000000e+00 0.0000000000000000e+00 0.0000000000000000e+00 0.0000000000000000e+00 0.0000000000000000e+00 0.0000000000000000e+00 0.0000000000000000e+00 0.0000000000000000e+00 0.0000000000000000e+00 0.0000000000000000e+00 0.0000000000000000e+00 0.0000000000000000e+00 0.0000000000000000e+00 0.0000000000000000e+00 0.0000000000000000e+00 0.0000000000000000e+00 0.0000000000000000e+00 0.0000000000000000e+00 0.0000000000000000e+00 0.0000000000000000e+00 0.0000000000000000e+00 0.0000000000000000e+00 0.0000000000000000e+00 0.0000000000000000e+00 0.0000000000000000e+00 0.0000000000000000e+00 0.0000000000000000e+00 0.0000000000000000e+00 0.0000000000000000e+00 0.0000000000000000e+00 0.0000000000000000e+00 0.0000000000000000e+00 0.0000000000000000e+00 0.0000000000000000e+00 0.0000000000000000e+00 0.0000000000000000e+00 0.0000000000000000e+00 0.0000000000000000e+00 0.0000000000000000e+00 0.0000000000000000e+00 0.0000000000000000e+00 0.0000000000000000e+00 0.0000000000000000e+00 0.0000000000000000e+00 0.0000000000000000e+00 0.0000000000000000e+00 0.0000000000000000e+00 0.0000000000000000e+00 0.0000000000000000e+00 0.0000000000000000e+00 0.0000000000000000e+00 0.0000000000000000e+00 0.0000000000000000e+00 0.0000000000000000e+00 0.0000000000000000e+00 0.0000000000000000e+00 0.0000000000000000e+00 0.0000000000000000e+00 0.0000000000000000e+00 0.0000000000000000e+00 0.0000000000000000e+00 0.0000000000000000e+00 0.0000000000000000e+00 0.0000000000000000e+00 0.0000000000000000e+00 0.0000000000000000e+00 0.0000000000000000e+00 0.0000000000000000e+00 1.0000000000000000e+00 0.0000000000000000e+00 -1.2166158511571080e-06 -1.9199659316510325e-06 -2.2368005523220006e-06 -2.3590307251182959e-06 -2.4024363182778161e-06 -2.4193179894700078e-06 -2.4294296659333650e-06 -2.4391909796668482e-06 -2.4503746869691753e-06 -2.4633627412977878e-06 -2.4781955701084588e-06 -2.4948611214080780e-06 -2.5133577854308298e-06 -2.5337007970526205e-06 -2.5559184896949440e-06 -2.5800486916197308e-06 -2.6061365666156047e-06 -2.6342335008028200e-06 -2.6643965754352515e-06 -2.6966883580233614e-06 -2.7311768972339879e-06 -2.7679358717838079e-06 -2.8070448423680271e-06 -2.8485895477757568e-06 -2.8926622137321540e-06 -2.9393618915558447e-06 -2.9887948635868640e-06 -3.0410751227770576e-06 -3.0963248929731976e-06 -3.1546751606264907e-06 -3.2162662373251521e-06 -3.2812484053540578e-06 -3.3497826686958688e-06 -3.4220415722540269e-06 -3.4982100420661169e-06 -3.5784862592643043e-06 -3.6630826398483331e-06 -3.7522269724365373e-06 -3.8461636884015047e-06 -3.9451552057624219e-06 -4.0494833480015900e-06 -4.1594509138103707e-06 -4.2753834605339674e-06 -4.3976312806929831e-06 -4.5265715209541555e-06 -4.6626104711480635e-06 -4.8061861321306082e-06 -4.9577711323076586e-06 -5.1178759508874042e-06 -5.2870523903644419e-06 -5.4658973652077587e-06 -5.6550571724447418e-06 -5.8552323383351308e-06 -6.0671830003238405e-06 -6.2917348004329408e-06 -6.5297854296841452e-06 -6.7823120337635089e-06 -7.0503795650044721e-06 -7.3351500636595535e-06 -7.6378929803716964e-06 -7.9599968503882607e-06 -8.3029825972727660e-06 -8.6685185469942492e-06 -9.0584372441510509e-06 -9.4747544478894777e-06 -9.9196908504285382e-06 -1.0395696897620220e-05 -1.0905480972675229e-05 -1.1452041478141137e-05 -1.2038703697196195e-05 -1.2669162274928423e-05 -1.3347530003178848e-05 -1.4078393907232378e-05 -1.4866880222532105e-05 -1.5718730014106312e-05 -1.6640387080408281e-05 -1.7639100260926838e-05 -1.8723043263750154e-05 -1.9901455634723583e-05 -2.1184808623636325e-05 -2.2585000832535248e-05 -2.4115590597106670e-05 -2.5792073311494001e-05 -2.7632212568697706e-05 -2.9656436680606275e-05 -3.1888316958848135e-05 -3.4355147970625294e-05 -3.7088653168806220e-05 -4.0125846363811215e-05 -4.3510090704222164e-05 -4.7292408205845252e-05 -5.1533106632497580e-05 -5.6303812991651267e-05 -6.1690033435400974e-05 -6.7794396984931427e-05 -7.4740794296662141e-05 -8.2679700895009782e-05 -9.1795080447437907e-05 -1.0231341365498933e-04 -1.1451561923243755e-04 -1.2875295365340721e-04 -1.4546844599301601e-04 -1.6522613350223792e-04 -1.8875144605678436e-04 -2.1698776221618126e-04 -2.5117681108982029e-04 -2.9297488163404083e-04 -3.4462388528059418e-04 -4.0920833693610341e-04 -4.9105028440832039e-04 -5.9633180024568533e-04 -7.3410374664685041e-04 -9.1796858424813622e-04 -1.1689650032537307e-03 -1.5206094014296287e-03 -2.0277171793127821e-03 -2.7813101776517184e-03 -3.9312067188924001e-03 -5.7106709676619663e-03 -8.4292242580777041e-03 -1.2315969678759316e-02 -1.6880976036739947e-02 -1.8911280192706242e-02 -6.4386535253869500e-03 6.1395685920433485e-02 3.1812901746220679e-01 1.0000000000000000e+00 0.0000000000000000e+00 -3.1352925558100245e-06 -4.6994377232090604e-06 -5.4139347933879151e-06 -5.7023920798175515e-06 -5.8119136723447041e-06 -5.8575660443497963e-06 -5.8850462851299904e-06 -5.9102818142701182e-06 -5.9381829333778461e-06 -5.9700715138428725e-06 -6.0062488198173787e-06 -6.0467804746751458e-06 -6.0917053292067572e-06 -6.1410796750263084e-06 -6.1949812613279412e-06 -6.2535062602425671e-06 -6.3167664633204701e-06 -6.3848876247266006e-06 -6.4580086764340311e-06 -6.5362815133661128e-06 -6.6198711659634519e-06 -6.7089562374187392e-06 -6.8037295013398211e-06 -6.9043985882837161e-06 -7.0111867493171088e-06 -7.1243337300377174e-06 -7.2440967807811638e-06 -7.3707517857408927e-06 -7.5045944764680924e-06 -7.6459417296968557e-06 -7.7951329959892681e-06 -7.9525319005424007e-06 -8.1185280045625212e-06 -8.2935386858870010e-06 -8.4780111395778406e-06 -8.6724245702803587e-06 -8.8772926556640677e-06 -9.0931662890832392e-06 -9.3206365498682398e-06 -9.5603378851837586e-06 -9.8129515784370751e-06 -1.0079209607957757e-05 -1.0359898930545824e-05 -1.0655866161733941e-05 -1.0968022669396997e-05 -1.1297350195341010e-05 -1.1644907129137535e-05 -1.2011835461326245e-05 -1.2399368391023168e-05 -1.2808838662315589e-05 -1.3241687839114336e-05 -1.3699476712708678e-05 -1.4183896897155408e-05 -1.4696783631036146e-05 -1.5240129959637153e-05 -1.5816102616736762e-05 -1.6427059866533315e-05 -1.7075571438509994e-05 -1.7764440761640234e-05 -1.8496729938418635e-05 -1.9275787975559000e-05 -2.0105282636533757e-05 -2.0989236243811689e-05 -2.1932066046075807e-05 -2.2938630065194967e-05 -2.4014279303815587e-05 -2.5164917071265331e-05 -2.6397066441211882e-05 -2.7717947358519681e-05 -2.9135565119307671e-05 -3.0658811893810994e-05 -3.2297583291800771e-05 -3.4062912794298494e-05 -3.5967127491146204e-05 -3.8024028746427419e-05 -4.0249101974357134e-05 -4.2659761116597874e-05 -4.5275634897839309e-05 -4.8118902925382095e-05 -5.1214691049712314e-05 -5.4591538045483783e-05 -5.8281949056451164e-05 -6.2323054528361880e-05 -6.6757397185541805e-05 -7.1633875353908590e-05 -7.7008878869014720e-05 -8.2947663437053196e-05 -8.9526021115668685e-05 -9.6832320259042509e-05 -1.0497000938810097e-04 -1.1406070716393921e-04 -1.2424803735659997e-04 -1.3570241719205030e-04 -1.4862707389111599e-04 -1.6326565456071266e-04 -1.7991192024338309e-04 -1.9892218883932073e-04 -2.2073143334896996e-04 -2.4587428696777581e-04 -2.7501270301657615e-04 -3.0897273360838934e-04 -3.4879394505266131e-04 -3.9579656463711724e-04 -4.5167383441106708e-04 -5.1862071109259628e-04 -5.9951579602223154e-04 -6.9818254340722546e-04 -8.1977072920370289e-04 -9.7132404774525661e-04 -1.1626420780334937e-03 -1.4076185269566760e-03 -1.7263675533015807e-03 -2.1486787713596409e-03 -2.7197311614156360e-03 -3.5095905921153840e-03 -4.6286432424372699e-03 -6.2506636761749841e-03 -8.6394448158918433e-03 -1.2151008305599368e-02 -1.7108803665541444e-02 -2.3253495593964182e-02 -2.8018618546630875e-02 -2.1945757336552189e-02 2.2012893285307360e-02 1.6683278057567866e-01 5.0360139548509153e-01 1.0000000000000000e+00 0.0000000000000000e+00 -5.3668989415099262e-06 -7.8711062057389950e-06 -9.0059077309312258e-06 -9.4703471940691802e-06 -9.6523055335966987e-06 -9.7313029035824575e-06 -9.7796180311067747e-06 -9.8232057836185176e-06 -9.8704992702367126e-06 -9.9240002917778580e-06 -9.9844050841223140e-06 -1.0051928529379708e-05 -1.0126688686864158e-05 -1.0208805614289786e-05 -1.0298421749707676e-05 -1.0395703642753357e-05 -1.0500840530436396e-05 -1.0614043136972856e-05 -1.0735543153916691e-05 -1.0865593305565945e-05 -1.1004467855648579e-05 -1.1152463421721735e-05 -1.1309899986896094e-05 -1.1477122053066400e-05 -1.1654499945569365e-05 -1.1842431305511093e-05 -1.2041342777692536e-05 -1.2251691863738357e-05 -1.2473968917599108e-05 -1.2708699310183208e-05 -1.2956445819021828e-05 -1.3217811269367764e-05 -1.3493441403486303e-05 -1.3784027959818390e-05 -1.4090312009054873e-05 -1.4413087641373668e-05 -1.4753206062887127e-05 -1.5111580082015606e-05 -1.5489188953861967e-05 -1.5887083629995926e-05 -1.6306392535990653e-05 -1.6748327974308722e-05 -1.7214193168067003e-05 -1.7705389949898236e-05 -1.8223427189481853e-05 -1.8769930123133674e-05 -1.9346650699104839e-05 -1.9955478965510172e-05 -2.0598455561611893e-05 -2.1277785518673263e-05 -2.1995853647008152e-05 -2.2755241689472473e-05 -2.3558747323031126e-05 -2.4409405179939662e-05 -2.5310510255128826e-05 -2.6265644117121314e-05 -2.7278704224689199e-05 -2.8353936633810507e-05 -2.9495972589740537e-05 -3.0709869696506394e-05 -3.2001158310553212e-05 -3.3375893712244602e-05 -3.4840714808080529e-05 -3.6402910504946952e-05 -3.8070495057006117e-05 -3.9852293603530964e-05 -4.1758039265015714e-05 -4.3798483706462427e-05 -4.5985523542009578e-05 -4.8332345080295580e-05 -5.0853590185786624e-05 -5.3565546865976236e-05 -5.6486369132124689e-05 -5.9636331247962643e-05 -6.3038122184384438e-05 -6.6717187576432921e-05 -7.0702128304101625e-05 -7.5025166435267553e-05 -7.9722691331821264e-05 -8.4835901925985581e-05 -9.0411564873626755e-05 -9.6502912214562763e-05 -1.0317070782086312e-04 -1.1048451992467895e-04 -1.1852424589603013e-04 -1.2738194572127937e-04 -1.3716405584598130e-04 -1.4799407588111561e-04 -1.6001584503345874e-04 -1.7339755602502203e-04 -1.8833669827800627e-04 -2.0506618074267173e-04 -2.2386195947782887e-04 -2.4505259666649529e-04 -2.6903131875050188e-04 -2.9627133205530792e-04 -3.2734541551061186e-04 -3.6295117736852143e-04 -4.0394388060715098e-04 -4.5137947535815580e-04 -5.0657153359373738e-04 -5.7116732375504960e-04 -6.4725053591283975e-04 -7.3748156540685329e-04 -8.4529142216726867e-04 -9.7515327932160673e-04 -1.1329681123362846e-03 -1.3266206912698672e-03 -1.5667942668804629e-03 -1.8681850427673371e-03 -2.2513452451424524e-03 -2.7455293646217022e-03 -3.3931538879299972e-03 -4.2568283522275681e-03 -5.4302890184707558e-03 -7.0544079389456829e-03 -9.3365762473342582e-03 -1.2559205143836787e-02 -1.7021770821333833e-02 -2.2746051177378178e-02 -2.8500452023752142e-02 -2.9158071201282797e-02 -9.7009852339564433e-03 6.4928115453506796e-02 2.5380026431652142e-01 5.9584085434038681e-01 1.0000000000000000e+00 0.0000000000000000e+00 -7.7137310297593576e-06 -1.1198936071687237e-05 -1.2762712212742355e-05 -1.3403447288496794e-05 -1.3657674000705655e-05 -1.3770549111256204e-05 -1.3840632287640895e-05 -1.3903619099711537e-05 -1.3971364240807638e-05 -1.4047547042513916e-05 -1.4133285319264509e-05 -1.4228969978111203e-05 -1.4334818150471276e-05 -1.4451027144556759e-05 -1.4577813244869826e-05 -1.4715419956545634e-05 -1.4864119123586418e-05 -1.5024210895609868e-05 -1.5196023892367348e-05 -1.5379915789891541e-05 -1.5576274292415713e-05 -1.5785518395760795e-05 -1.6008099863789936e-05 -1.6244504898450399e-05 -1.6495256033911795e-05 -1.6760914283300895e-05 -1.7042081524542763e-05 -1.7339403091855682e-05 -1.7653570573983841e-05 -1.7985324871807829e-05 -1.8335459572373073e-05 -1.8704824648859804e-05 -1.9094330464682708e-05 -1.9504952096938763e-05 -1.9937734061996188e-05 -2.0393795535999417e-05 -2.0874336098581224e-05 -2.1380641976175252e-05 -2.1914092802560840e-05 -2.2476169007418015e-05 -2.3068459971900995e-05 -2.3692673022083318e-05 -2.4350643273024345e-05 -2.5044344387214356e-05 -2.5775900414079681e-05 -2.6547598892321184e-05 -2.7361905312851077e-05 -2.8221479006886252e-05 -2.9129190633660972e-05 -3.0088141573241622e-05 -3.1101685510959039e-05 -3.2173452382562615e-05 -3.3307374855101357e-05 -3.4507717703613926e-05 -3.5779110590587941e-05 -3.7126584703317735e-05 -3.8555613621983242e-05 -4.0072158925118025e-05 -4.1682721299904054e-05 -4.3394398009638896e-05 -4.5214947480083023e-05 -4.7152861850981863e-05 -4.9217448721012299e-05 -5.1418923637918964e-05 -5.3768514905644155e-05 -5.6278582336102678e-05 -5.8962752046928173e-05 -6.1836070032084822e-05 -6.4915177546419093e-05 -6.8218511582166918e-05 -7.1766534469268949e-05 -7.5581997753023072e-05 -7.9690246329617719e-05 -8.4119569516512562e-05 -8.8901607187146395e-05 -9.4071821278944484e-05 -9.9670044933706630e-05 -1.0574112340827712e-04 -1.1233566412274885e-04 -1.1951091789284977e-04 -1.2733181801526309e-04 -1.3587220871047096e-04 -1.4521630204869447e-04 -1.5546041336231381e-04 -1.6671503701490715e-04 -1.7910733799241004e-04 -1.9278415451201979e-04 -2.0791563369838037e-04 -2.2469965433883100e-04 -2.4336723150834882e-04 -2.6418915456971701e-04 -2.8748418443969704e-04 -3.1362923155230327e-04 -3.4307206608765221e-04 -3.7634728961945561e-04 -4.1409653452015630e-04 -4.5709418278739244e-04 -5.0628034976142274e-04 -5.6280350714606241e-04 -6.2807600315371436e-04 -7.0384699892523197e-04 -7.9229914940557808e-04 -8.9617798017001618e-04 -1.0189667699455338e-03 -1.1651254789914662e-03 -1.3404208750691573e-03 -1.5523881180264112e-03 -1.8109842377158252e-03 -2.1295252897195411e-03 -2.5260479899525418e-03 -3.0253129688953503e-03 -3.6617825815151764e-03 -4.4840674077243669e-03 -5.5615020668242547e-03 -6.9934496192858896e-03 -8.9207386680743503e-03 -1.1533323082616127e-02 -1.5050111922000313e-02 -1.9593566677691413e-02 -2.4744557625637386e-02 -2.8265268211785478e-02 -2.3003780289032938e-02 9.1190022678601483e-03 1.0414276218471755e-01 3.0983912798559776e-01 6.3842037302888777e-01 1.0000000000000000e+00 0.0000000000000000e+00 -1.0093762496302402e-05 -1.4578188321370983e-05 -1.6575376412016854e-05 -1.7391646829323654e-05 -1.7716786012150025e-05 -1.7862798014468087e-05 -1.7954469808706405e-05 -1.8036976896610332e-05 -1.8125417696476098e-05 -1.8224566229539080e-05 -1.8335933378458185e-05 -1.8460080977658311e-05 -1.8597327914185922e-05 -1.8747952903307983e-05 -1.8912249691840362e-05 -1.9090541441617963e-05 -1.9283184521350990e-05 -1.9490569862738823e-05 -1.9713123996525964e-05 -1.9951310284695943e-05 -2.0205630431251881e-05 -2.0476626240405881e-05 -2.0764881596567137e-05 -2.1071024687515621e-05 -2.1395730512370306e-05 -2.1739723685180449e-05 -2.2103781505230797e-05 -2.2488737273440360e-05 -2.2895483889188084e-05 -2.3324977799876460e-05 -2.3778243350646527e-05 -2.4256377528449311e-05 -2.4760555092137244e-05 -2.5292034140062089e-05 -2.5852162217046652e-05 -2.6442383035155973e-05 -2.7064243815353443e-05 -2.7719403251035550e-05 -2.8409640174656133e-05 -2.9136863079321682e-05 -2.9903120617977156e-05 -3.0710613122045026e-05 -3.1561705179522663e-05 -3.2458939413304673e-05 -3.3405051677433176e-05 -3.4402987844185148e-05 -3.5455922276656188e-05 -3.6567278124593530e-05 -3.7740749728658463e-05 -3.8980327484223200e-05 -4.0290325429593120e-05 -4.1675411758317367e-05 -4.3140642580951797e-05 -4.4691499463928972e-05 -4.6333931314381976e-05 -4.8074401080561281e-05 -4.9919937771787599e-05 -5.1878194556072886e-05 -5.3957513899220147e-05 -5.6167000682307895e-05 -5.8516604220278296e-05 -6.1017210398530109e-05 -6.3680745566369181e-05 -6.6520293990382636e-05 -6.9550230680478269e-05 -7.2786371732243380e-05 -7.6246145005059285e-05 -7.9948784468357191e-05 -8.3915551792691439e-05 -8.8169989319497231e-05 -9.2738209665663295e-05 -9.7649228325077811e-05 -1.0293534640301615e-04 -1.0863259175624862e-04 -1.1478122885759571e-04 -1.2142635006285511e-04 -1.2861856309287251e-04 -1.3641479220318474e-04 -1.4487921456622399e-04 -1.5408435845932998e-04 -1.6411239539792133e-04 -1.7505666508846280e-04 -1.8702348108435484e-04 -2.0013427660297921e-04 -2.1452816424767274e-04 -2.3036500121968628e-04 -2.4782907437663314e-04 -2.6713354885951450e-04 -2.8852586197867960e-04 -3.1229429316632549e-04 -3.3877600455104107e-04 -3.6836692999410708e-04 -4.0153400054217540e-04 -4.3883034100216083e-04 -4.8091426750984754e-04 -5.2857317750174698e-04 -5.8275377975186896e-04 -6.4460059846397375e-04 -7.1550535106789054e-04 -7.9717072411691480e-04 -8.9169336542074915e-04 -1.0016727274662078e-03 -1.1303549788816455e-03 -1.2818248976134562e-03 -1.4612639816434054e-03 -1.6753007403096103e-03 -1.9324904042975709e-03 -2.2439777756456253e-03 -2.6244210022150559e-03 -3.0932887422091561e-03 -3.6766913859887355e-03 -4.4099675343905733e-03 -5.3412992798849866e-03 -6.5365813728287371e-03 -8.0852823204202364e-03 -1.0104996097088956e-02 -1.2735403820898957e-02 -1.6091037949149369e-02 -2.0083493139852703e-02 -2.3881451751137418e-02 -2.4496072286784042e-02 -1.3641671257319753e-02 2.7586249262196549e-02 1.3294092874584754e-01 3.4107476409813858e-01 6.5533840416337297e-01 1.0000000000000000e+00 0.0000000000000000e+00 -1.2477265894354131e-05 -1.7966935917588161e-05 -2.0399565037160417e-05 -2.1390947421484527e-05 -2.1785984271526749e-05 -2.1964325127338316e-05 -2.2077108487095022e-05 -2.2178891883226639e-05 -2.2287905170459222e-05 -2.2409943319989150e-05 -2.2546871683285280e-05 -2.2699405712676177e-05 -2.2867959378087911e-05 -2.3052890717846918e-05 -2.3254570509480767e-05 -2.3473401523599777e-05 -2.3709824507226775e-05 -2.3964320782578190e-05 -2.4237414131442506e-05 -2.4529672683469137e-05 -2.4841710981030480e-05 -2.5174192250922721e-05 -2.5527830911059031e-05 -2.5903395364290354e-05 -2.6301711118212277e-05 -2.6723664222790002e-05 -2.7170204995856542e-05 -2.7642352044882911e-05 -2.8141196652916397e-05 -2.8667907606601466e-05 -2.9223736493874548e-05 -2.9810023458206295e-05 -3.0428203425087031e-05 -3.1079812885171269e-05 -3.1766497337557619e-05 -3.2490019443290730e-05 -3.3252267894739696e-05 -3.4055267049169221e-05 -3.4901187463836443e-05 -3.5792357491028458e-05 -3.6731276019546098e-05 -3.7720626396845863e-05 -3.8763291630997795e-05 -3.9862371086696987e-05 -4.1021198909118295e-05 -4.2243364325555613e-05 -4.3532733944452884e-05 -4.4893476284968650e-05 -4.6330088900193371e-05 -4.7847428440902220e-05 -4.9450743910164009e-05 -5.1145713398655118e-05 -5.2938484792392029e-05 -5.4835721080313087e-05 -5.6844650828390563e-05 -5.8973124333553082e-05 -6.1229676152327778e-05 -6.3623594980483756e-05 -6.6165001944135351e-05 -6.8864938305458393e-05 -7.1735463744401621e-05 -7.4789766804453191e-05 -7.8042289403068210e-05 -8.1508867349566538e-05 -8.5206888986951121e-05 -8.9155474671712088e-05 -9.3375680462418488e-05 -9.7890729727430296e-05 -1.0272627677140064e-04 -1.0791070752526474e-04 -1.1347548354064133e-04 -1.1945553643646613e-04 -1.2588972093067596e-04 -1.3282133634841273e-04 -1.4029872873540266e-04 -1.4837598781360182e-04 -1.5711375555670979e-04 -1.6658016693297351e-04 -1.7685194779798946e-04 -1.8801569959020573e-04 -2.0016940680511050e-04 -2.1342421204213175e-04 -2.2790651332950203e-04 -2.4376044965686164e-04 -2.6115085645117450e-04 -2.8026679385662273e-04 -3.0132577498338657e-04 -3.2457885136270804e-04 -3.5031675440280833e-04 -3.7887734499610114e-04 -4.1065468895300883e-04 -4.4611016242252090e-04 -4.8578610715066279e-04 -5.3032270437032483e-04 -5.8047893132025317e-04 -6.3715872686779444e-04 -7.0144384208539669e-04 -7.7463531761492825e-04 -8.5830616087600065e-04 -9.5436865320742655e-04 -1.0651608819673899e-03 -1.1935586887182703e-03 -1.3431214196622699e-03 -1.5182828827750476e-03 -1.7246030724562687e-03 -1.9691019313613145e-03 -2.2607041853060094e-03 -2.6108346814690000e-03 -3.0342170997891835e-03 -3.5499450148139384e-03 -4.1829100347026459e-03 -4.9656756695679073e-03 -5.9408398377384167e-03 -7.1637122850450683e-03 -8.7043622365654810e-03 -1.0645583693575197e-02 -1.3065607404805881e-02 -1.5972059912357461e-02 -1.9094475612110438e-02 -2.1305579176717694e-02 -1.9193108097077378e-02 -4.0870219496808510e-03 4.2506604383308166e-02 1.5152912203108182e-01 3.5630428464994540e-01 6.5962906072183036e-01 1.0000000000000000e+00 0.0000000000000000e+00 -1.4854279061578811e-05 -2.1349230312711731e-05 -2.4217615820807290e-05 -2.5383814857801922e-05 -2.5848149534853274e-05 -2.6058231116514266e-05 -2.6191664316452356e-05 -2.6312380586967901e-05 -2.6441695755134271e-05 -2.6586383371715205e-05 -2.6748634352732837e-05 -2.6929300749434775e-05 -2.7128882361090008e-05 -2.7347811640933825e-05 -2.7586533648257687e-05 -2.7845528945343680e-05 -2.8125321140826435e-05 -2.8426480427337952e-05 -2.8749626173732794e-05 -2.9095429404314018e-05 -2.9464615389246605e-05 -2.9857966423107653e-05 -3.0276324859597803e-05 -3.0720596468641931e-05 -3.1191754142030176e-05 -3.1690841928006949e-05 -3.2218979381573767e-05 -3.2777366276172581e-05 -3.3367287766356047e-05 -3.3990120067197421e-05 -3.4647336655766404e-05 -3.5340514987140372e-05 -3.6071343774581766e-05 -3.6841630940852870e-05 -3.7653312331310717e-05 -3.8508461219596577e-05 -3.9409298631820324e-05 -4.0358204592555166e-05 -4.1357730461353904e-05 -4.2410612494367544e-05 -4.3519786685472103e-05 -4.4688404948568001e-05 -4.5919852816521326e-05 -4.7217768917374005e-05 -4.8586066443001754e-05 -5.0028956744640756e-05 -5.1550975233322821e-05 -5.3157009911370057e-05 -5.4852332928177976e-05 -5.6642635477141595e-05 -5.8534066310019655e-05 -6.0533274292100397e-05 -6.2647455620570716e-05 -6.4884406351230358e-05 -6.7252580783202183e-05 -6.9761156321331081e-05 -7.2420105719818982e-05 -7.5240277815164921e-05 -7.8233487832132296e-05 -8.1412618375009332e-05 -8.4791732556140567e-05 -8.8386201126836177e-05 -9.2212845617603681e-05 -9.6290099557543688e-05 -1.0063819027926222e-04 -1.0527934452283571e-04 -1.1023802152068843e-04 -1.1554117752619312e-04 -1.2121856645547158e-04 -1.2730308249691449e-04 -1.3383115155254932e-04 -1.4084317916046989e-04 -1.4838406395126255e-04 -1.5650378789524254e-04 -1.6525809669648800e-04 -1.7470928559533029e-04 -1.8492710886466618e-04 -1.9598983575553274e-04 -2.0798548016787540e-04 -2.2101323585416955e-04 -2.3518515575149623e-04 -2.5062812365761759e-04 -2.6748617682290110e-04 -2.8592324950446445e-04 -3.0612642379761152e-04 -3.2830979568532973e-04 -3.5271908896173840e-04 -3.7963718021216187e-04 -4.0939073961864246e-04 -4.4235824468903163e-04 -4.7897968796709083e-04 -5.1976838409795211e-04 -5.6532539191285643e-04 -6.1635720601446264e-04 -6.7369755339059161e-04 -7.3833436995792269e-04 -8.1144334084852542e-04 -8.9442979257839568e-04 -9.8898126101066002e-04 -1.0971337594834756e-03 -1.2213556909208396e-03 -1.3646545587884171e-03 -1.5307132064272260e-03 -1.7240643460654703e-03 -1.9503147205583659e-03 -2.2164334085943626e-03 -2.5311224652787749e-03 -2.9052919010070510e-03 -3.3526638304031096e-03 -3.8905297561515084e-03 -4.5406738089019275e-03 -5.3304369082862960e-03 -6.2937882252451722e-03 -7.4719639473601850e-03 -8.9123453897050463e-03 -1.0661615187589927e-02 -1.2741460135491628e-02 -1.5073099924393166e-02 -1.7259725557102295e-02 -1.8007273146797186e-02 -1.3744699335349896e-02 4.1392281396343397e-03 5.3318046612969600e-02 1.6250844961165650e-01 3.6251931682412536e-01 6.5850537199043935e-01 1.0000000000000000e+00 0.0000000000000000e+00 -1.7221266141776904e-05 -2.4718647725398873e-05 -2.8021931590945765e-05 -2.9362526729680266e-05 -2.9895759979788848e-05 -3.0137175344752559e-05 -3.0290875756272621e-05 -3.0430176660155046e-05 -3.0579468909404320e-05 -3.0746486716723992e-05 -3.0933730205765073e-05 -3.1142175892647372e-05 -3.1372401220090582e-05 -3.1624907671887007e-05 -3.1900210903219710e-05 -3.2198866480817854e-05 -3.2521478480853757e-05 -3.2868703670130618e-05 -3.3241254637893598e-05 -3.3639902769494130e-05 -3.4065481308707984e-05 -3.4518888614690569e-05 -3.5001091703349313e-05 -3.5513130137628088e-05 -3.6056120277769232e-05 -3.6631259873724288e-05 -3.7239833016463236e-05 -3.7883215526225599e-05 -3.8562880869639919e-05 -3.9280406645753356e-05 -4.0037481632421618e-05 -4.0835913408026384e-05 -4.1677636635053046e-05 -4.2564722120240118e-05 -4.3499386719459459e-05 -4.4484004111039149e-05 -4.5521116500638197e-05 -4.6613447407198206e-05 -4.7763915699483561e-05 -4.8975650980582676e-05 -5.0252010368202193e-05 -5.1596596791196768e-05 -5.3013279045962060e-05 -5.4506213878164734e-05 -5.6079870268587300e-05 -5.7739056069385297e-05 -5.9488947251422961e-05 -6.1335120154179068e-05 -6.3283587116625875e-05 -6.5340835783890766e-05 -6.7513872442351682e-05 -6.9810269943194084e-05 -7.2238220894757708e-05 -7.4806596731446037e-05 -7.7525013230153125e-05 -8.0403903255255784e-05 -8.3454597799820311e-05 -8.6689416462377384e-05 -9.0121768453682875e-05 -9.3766265422564891e-05 -9.7638847820180152e-05 -1.0175692679489909e-04 -1.0613954364480880e-04 -1.1080754909329702e-04 -1.1578380529748028e-04 -1.2109341410740073e-04 -1.2676397537368506e-04 -1.3282587952858263e-04 -1.3931263966939186e-04 -1.4626126950894306e-04 -1.5371271433958737e-04 -1.6171234310274335e-04 -1.7031051143030418e-04 -1.7956320768746444e-04 -1.8953279593631186e-04 -2.0028887191729270e-04 -2.1190925150100598e-04 -2.2448111527209030e-04 -2.3810233734149563e-04 -2.5288303171425007e-04 -2.6894735647198204e-04 -2.8643562467908372e-04 -3.0550678123146676e-04 -3.2634131746810276e-04 -3.4914471100536983e-04 -3.7415149769425867e-04 -4.0163010696271726e-04 -4.3188862224438466e-04 -4.6528166599345776e-04 -5.0221865611425789e-04 -5.4317374064158884e-04 -5.8869779354627416e-04 -6.3943294999346215e-04 -6.9613027999479622e-04 -7.5967135382062261e-04 -8.3109464822470991e-04 -9.1162798891944463e-04 -1.0027285386533897e-03 -1.1061322363199412e-03 -1.2239150846004760e-03 -1.3585692946461384e-03 -1.5130980371030997e-03 -1.6911334128752852e-03 -1.8970832192874525e-03 -2.1363130400528165e-03 -2.4153708897618085e-03 -2.7422616108259074e-03 -3.1267764544657133e-03 -3.5808778716806197e-03 -4.1191267790512279e-03 -4.7591118872949544e-03 -5.5217814117946677e-03 -6.4314446753455483e-03 -7.5148858832867630e-03 -8.7981527609435253e-03 -1.0297037097469330e-02 -1.1989787213007450e-02 -1.3739450028126328e-02 -1.5078533576368165e-02 -1.4647409190606043e-02 -8.8779065425810058e-03 1.0598969018628267e-02 6.0664448958791375e-02 1.6857746779570412e-01 3.6425101998032799e-01 6.5568136482235873e-01 1.0000000000000000e+00 0.0000000000000000e+00 -1.9576466161349637e-05 -2.8071907832824099e-05 -3.1808450984105899e-05 -3.3322806607948684e-05 -3.3924577765189731e-05 -3.4197009136460046e-05 -3.4370652384035870e-05 -3.4528202879004624e-05 -3.4697125202479369e-05 -3.4886108838392472e-05 -3.5097955681209692e-05 -3.5333759502725843e-05 -3.5594169380294131e-05 -3.5879751081919010e-05 -3.6191087065701463e-05 -3.6528804699434230e-05 -3.6893585617478990e-05 -3.7286170335246730e-05 -3.7707361776702783e-05 -3.8158028645151209e-05 -3.8639108893912497e-05 -3.9151613418897829e-05 -3.9696630068714000e-05 -4.0275328024291564e-05 -4.0888962548453885e-05 -4.1538880102320836e-05 -4.2226523878451313e-05 -4.2953439846045864e-05 -4.3721283382673769e-05 -4.4531826505011571e-05 -4.5386965693798922e-05 -4.6288730364976846e-05 -4.7239292102726426e-05 -4.8240974759406044e-05 -4.9296265466027989e-05 -5.0407826586177042e-05 -5.1578508720548014e-05 -5.2811364937928800e-05 -5.4109666378733505e-05 -5.5476919298544415e-05 -5.6916883626932931e-05 -5.8433593233427403e-05 -6.0031378179668579e-05 -6.1714889190917565e-05 -6.3489124497022312e-05 -6.5359459237548470e-05 -6.7331677775790498e-05 -6.9412009334333469e-05 -7.1607167291109521e-05 -7.3924392443851876e-05 -7.6371500705363270e-05 -7.8956935884422241e-05 -8.1689828214763003e-05 -8.4580059199670048e-05 -8.7638333428902073e-05 -9.0876258318172166e-05 -9.4306432910496311e-05 -9.7942546843505867e-05 -1.0179949063366360e-04 -1.0589347878047896e-04 -1.1024218757342861e-04 -1.1486490958403922e-04 -1.1978272690394897e-04 -1.2501870566237908e-04 -1.3059811502798464e-04 -1.3654867428098078e-04 -1.4290083179454476e-04 -1.4968808047816784e-04 -1.5694731532420861e-04 -1.6471923954663241e-04 -1.7304882652939503e-04 -1.8198584614582952e-04 -1.9158546588364362e-04 -2.0190893889994373e-04 -2.1302439293733683e-04 -2.2500773683560959e-04 -2.3794370478255061e-04 -2.5192706174701136e-04 -2.6706399777815399e-04 -2.8347374501284055e-04 -3.0129045798596232e-04 -3.2066540479736407e-04 -3.4176952649320956e-04 -3.6479643528446231e-04 -3.8996593636527122e-04 -4.1752817447614194e-04 -4.4776852932449691e-04 -4.8101341228862075e-04 -5.1763714852613577e-04 -5.5807016913807120e-04 -6.0280879075303980e-04 -6.5242692205637017e-04 -7.07590112