<?xml version='1.0' encoding='utf-8'?>
<VTKFile type="UnstructuredGrid" version="0.1" byte_order="LittleEndian">
  <UnstructuredGrid>
    <Piece NumberOfPoints="16384" NumberOfCells="16129">
      <PointData>
        <DataArray type="Float64" Name="velocity_u" NumberOfComponents="1">0.0000000000000000e+00 0.0000000000000000e+00 0.0000000000000000e+00 0.0000000000000000e+00 0.0000000000000000e+00 0.0000000000000000e+00 0.0000000000000000e+00 0.0000000000000000e+00 0.0000000000000000e+00 0.0000000000000000e+00 0.0000000000000000e+00 0.0000000000000000e+00 0.0000000000000000e+00 0.0000000000000000e+00 0.0000000000000000e+00 0.0000000000000000e+00 0.0000000000000000e+00 0.0000000000000000e+00 0.0000000000000000e+00 0.0000000000000000e+00 0.0000000000000000e+00 0.0000000000000000e+00 0.0000000000000000e+00 0.0000000000000000e+00 0.0000000000000000e+00 0.0000000000000000e+00 0.0000000000000000e+00 0.0000000000000000e+00 0.0000000000000000e+00 0.0000000000000000e+00 0.0000000000000000e+00 0.0000000000000000e+00 0.0000000000000000e+00 0.0000000000000000e+00 0.0000000000000000e+00 0.0000000000000000e+00 0.0000000000000000e+00 0.0000000000000000e+00 0.0000000000000000e+00 0.0000000000000000e+00 0.0000000000000000e+00 0.0000000000000000e+00 0.0000000000000000e+00 0.0000000000000000e+00 0.0000000000000000e+00 0.0000000000000000e+00 0.0000000000000000e+00 0.0000000000000000e+00 0.0000000000000000e+00 0.0000000000000000e+00 0.0000000000000000e+00 0.0000000000000000e+00 0.0000000000000000e+00 0.0000000000000000e+00 0.0000000000000000e+00 0.0000000000000000e+00 0.0000000000000000e+00 0.0000000000000000e+00 0.0000000000000000e+00 0.0000000000000000e+00 0.0000000000000000e+00 0.0000000000000000e+00 0.0000000000000000e+00 0.0000000000000000e+00 0.0000000000000000e+00 0.0000000000000000e+00 0.0000000000000000e+00 0.0000000000000000e+00 0.0000000000000000e+00 0.0000000000000000e+00 0.0000000000000000e+00 0.0000000000000000e+00 0.0000000000000000e+00 0.0000000000000000e+00 0.0000000000000000e+00 0.0000000000000000e+00 0.0000000000000000e+00 0.0000000000000000e+00 0.0000000000000000e+00 0.0000000000000000e+00 0.0000000000000000e+00 0.0000000000000000e+00 0.0000000000000000e+00 0.0000000000000000e+00 0.0000000000000000e+00 0.0000000000000000e+00 0.0000000000000000e+00 0.0000000000000000e+00 0.0000000000000000e+00 0.0000000000000000e+00 0.0000000000000000e+00 0.0000000000000000e+00 0.0000000000000000e+00 0.0000000000000000e+00 0.0000000000000000e+00 0.0000000000000000e+00 0.0000000000000000e+00 0.0000000000000000e+00 0.0000000000000000e+00 0.0000000000000000e+00 0.0000000000000000e+00 0.0000000000000000e+00 0.0000000000000000e+00 0.0000000000000000e+00 0.0000000000000000e+00 0.0000000000000000e+00 0.0000000000000000e+00 0.0000000000000000e+00 0.0000000000000000e+00 0.0000000000000000e+00 0.0000000000000000e+00 0.0000000000000000e+00 0.0000000000000000e+00 0.0000000000000000e+00 0.0000000000000000e+00 0.0000000000000000e+00 0.0000000000000000e+00 0.0000000000000000e+00 0.0000000000000000e+00 0.0000000000000000e+00 0.0000000000000000e+00 0.0000000000000000e+00 0.0000000000000000e+00 0.0000000000000000e+00 0.0000000000000000e+00 0.0000000000000000e+00 0.0000000000000000e+00 1.0000000000000000e+00 0.0000000000000000e+00 -1.1860114802497420e-06 -1.8005399600170729e-06 -2.0558784254406097e-06 -2.1469283949018762e-06 -2.1774514203441006e-06 -2.1897175732304689e-06 -2.1981655155697960e-06 -2.2070220797488804e-06 -2.2173215801799092e-06 -2.2292491972328831e-06 -2.2428132418670649e-06 -2.2580071247933165e-06 -2.2748375586302017e-06 -2.2933243831078901e-06 -2.3134970103426209e-06 -2.3353919227571075e-06 -2.3590513348420916e-06 -2.3845225642906546e-06 -2.4118577701588052e-06 -2.4411138827759194e-06 -2.4723526643106841e-06 -2.5056408811871822e-06 -2.5410505571435266e-06 -2.5786592587247949e-06 -2.6185503844206266e-06 -2.6608134732902910e-06 -2.7055445706463072e-06 -2.7528466624843582e-06 -2.8028301491472961e-06 -2.8556133278995926e-06 -2.9113228988575487e-06 -2.9700945434485064e-06 -3.0320736004870580e-06 -3.0974158072622880e-06 -3.1662880582254833e-06 -3.2388691884799505e-06 -3.3153508495147944e-06 -3.3959385311161994e-06 -3.4808527085965602e-06 -3.5703300561399990e-06 -3.6646247202041569e-06 -3.7640097231674699e-06 -3.8687785622821578e-06 -3.9792469889377262e-06 -4.0957549160942385e-06 -4.2186684711617422e-06 -4.3483822949205081e-06 -4.4853221584416779e-06 -4.6299478612285865e-06 -4.7827563487109849e-06 -4.9442851024240219e-06 -5.1151159598561160e-06 -5.2958794607310936e-06 -5.4872596799740370e-06 -5.6899995101521448e-06 -5.9049065129703507e-06 -6.1328595416543912e-06 -6.3748162213489926e-06 -6.6318212620213148e-06 -6.9050156877837975e-06 -7.1956472652998158e-06 -7.5050823980399167e-06 -7.8348195573498446e-06 -8.1865043082559872e-06 -8.5619462576952435e-06 -8.9631384323013195e-06 -9.3922794404261641e-06 -9.8517986292467300e-06 -1.0344384685085235e-05 -1.0873018472354535e-05 -1.1441010888199335e-05 -1.2052046333241854e-05 -1.2710232646248666e-05 -1.3420158898162322e-05 -1.4186962626158435e-05 -1.5016407991960018e-05 -1.5914976743416996e-05 -1.6889974686811541e-05 -1.7949656775082968e-05 -1.9103374113411680e-05 -2.0361747386219784e-05 -2.1736873008633212e-05 -2.3242568992013999e-05 -2.4894667902472033e-05 -2.6711367223726907e-05 -2.8713652145487237e-05 -3.0925808562772420e-05 -3.3376046145511037e-05 -3.6097258054059434e-05 -3.9127954411813531e-05 -4.2513416064547213e-05 -4.6307126574503946e-05 -5.0572560541268820e-05 -5.5385433276455877e-05 -6.0836549065892346e-05 -6.7035432014736401e-05 -7.4114991886282069e-05 -8.2237569395336997e-05 -9.1602835390913178e-05 -1.0245821007757975e-04 -1.1511274586531626e-04 -1.2995582374571298e-04 -1.4748262605533333e-04 -1.6832928315160798e-04 -1.9332203502624176e-04 -2.2354702968893023e-04 -2.6045106148671381e-04 -3.0598961969949788e-04 -3.6284888105235849e-04 -4.3478613998937192e-04 -5.2716516665649439e-04 -6.4782204823271182e-04 -8.0850896142094480e-04 -1.0273782126479685e-03 -1.3333767695976973e-03 -1.7741474246813099e-03 -2.4300959130650239e-03 -3.4379076165504349e-03 -5.0230005406722419e-03 -7.5182086020615674e-03 -1.1265987905181886e-02 -1.6066365579124709e-02 -1.9193035064007467e-02 -9.0423043079696248e-03 5.6003886783855567e-02 3.1269190782056705e-01 1.0000000000000000e+00 0.0000000000000000e+00 -2.9852555819747271e-06 -4.3390355575315339e-06 -4.9097183277089385e-06 -5.1229635957890816e-06 -5.1996118810000724e-06 -5.2323602108837107e-06 -5.2545561546716400e-06 -5.2767461706518310e-06 -5.3018751949444922e-06 -5.3306572325638990e-06 -5.3632418939416973e-06 -5.3996711896478368e-06 -5.4399864963051162e-06 -5.4842465899991561e-06 -5.5325271199505156e-06 -5.5849179840916495e-06 -5.6415215275383631e-06 -5.7024516220422323e-06 -5.7678333185473053e-06 -5.8378028642924928e-06 -5.9125079802098595e-06 -5.9921083272934495e-06 -6.0767760885435830e-06 -6.1666966105422738e-06 -6.2620690986714355e-06 -6.3631074023633700e-06 -6.4700409205284606e-06 -6.5831156145567817e-06 -6.7025950949165644e-06 -6.8287617773340684e-06 -6.9619181507130630e-06 -7.1023881986844752e-06 -7.2505189672436492e-06 -7.4066822383619354e-06 -7.5712763054620249e-06 -7.7447279154006028e-06 -7.9274944539113177e-06 -8.1200663848059370e-06 -8.3229698916028536e-06 -8.5367696993763965e-06 -8.7620721438079921e-06 -8.9995285884238942e-06 -9.2498392265287727e-06 -9.5137572370600623e-06 -9.7920932994569736e-06 -1.0085720569105281e-05 -1.0395580232941158e-05 -1.0722687673225436e-05 -1.1068139208749816e-05 -1.1433119470406448e-05 -1.1818909602351826e-05 -1.2226896473654934e-05 -1.2658582948602874e-05 -1.3115599215740899e-05 -1.3599715320196478e-05 -1.4112855193795690e-05 -1.4657112427960776e-05 -1.5234767899485027e-05 -1.5848309411559550e-05 -1.6500453737626066e-05 -1.7194171542844174e-05 -1.7932715509489887e-05 -1.8719651932095861e-05 -1.9558896309242360e-05 -2.0454753756070422e-05 -2.1411965032419927e-05 -2.2435758833884907e-05 -2.3531911205275610e-05 -2.4706813417330989e-05 -2.5967549847406762e-05 -2.7321987314745085e-05 -2.8778877585103065e-05 -3.0347975532319160e-05 -3.2040176011475751e-05 -3.3867672572196395e-05 -3.5844141575936898e-05 -3.7984956644303813e-05 -4.0307439784257594e-05 -4.2831156199394101e-05 -4.5578260689202019e-05 -4.8573906037289618e-05 -5.1846727236377825e-05 -5.5429418144694909e-05 -5.9359419759096085e-05 -6.3679744161646744e-05 -6.8439965904185750e-05 -7.3697421211925185e-05 -7.9518664761334365e-05 -8.5981247029948447e-05 -9.3175894195152292e-05 -1.0120919657769309e-04 -1.1020694260762018e-04 -1.2031827808974757e-04 -1.3172092816156897e-04 -1.4462779655772414e-04 -1.5929536464481418e-04 -1.7603446245207312e-04 -1.9522419079142614e-04 -2.1733006893624761e-04 -2.4292790786463602e-04 -2.7273552077635474e-04 -3.0765528223116530e-04 -3.4883189272461658e-04 -3.9773173353134636e-04 -4.5625331206230601e-04 -5.2688317697181168e-04 -6.1291945061086629e-04 -7.1879776135750208e-04 -8.5057537972661442e-04 -1.0166651403098698e-03 -1.2289730856784654e-03 -1.5047047425590320e-03 -1.8693048909900426e-03 -2.3613532333717083e-03 -3.0408447884552555e-03 -4.0031500369850075e-03 -5.4015054850210806e-03 -7.4781597172089934e-03 -1.0587457325201496e-02 -1.5130823994258896e-02 -2.1132147376219532e-02 -2.6687449377406733e-02 -2.3406768825503431e-02 1.5013604361495014e-02 1.5374102442114862e-01 4.9171244790041563e-01 1.0000000000000000e+00 0.0000000000000000e+00 -5.0360813895471639e-06 -7.1877421870823871e-06 -8.0885097136289818e-06 -8.4298434547983316e-06 -8.5565712056999567e-06 -8.6128017958489733e-06 -8.6511234509396604e-06 -8.6887106209379131e-06 -8.7306566307545333e-06 -8.7783525260669059e-06 -8.8321715282257503e-06 -8.8922481969912904e-06 -8.9586827564612510e-06 -9.0315876257405122e-06 -9.1110950967473557e-06 -9.1973570824561757e-06 -9.2905440513604058e-06 -9.3908444155616809e-06 -9.4984644215635228e-06 -9.6136284378224659e-06 -9.7365795485169459e-06 -9.8675803672495137e-06 -1.0006913990591060e-05 -1.0154885051232987e-05 -1.0311820887921564e-05 -1.0478072873907521e-05 -1.0654017917541572e-05 -1.0840060107670331e-05 -1.1036632479009603e-05 -1.1244198919335557e-05 -1.1463256272152152e-05 -1.1694336663448249e-05 -1.1938010031536442e-05 -1.2194886838412199e-05 -1.2465621001732835e-05 -1.2750913135358647e-05 -1.3051514155281927e-05 -1.3368229231850017e-05 -1.3701922051215448e-05 -1.4053519423764723e-05 -1.4424016354106162e-05 -1.4814481668050184e-05 -1.5226064208936804e-05 -1.5659999595971629e-05 -1.6117617620872480e-05 -1.6600350433577075e-05 -1.7109741625599302e-05 -1.7647456230918908e-05 -1.8215291685840968e-05 -1.8815189927677354e-05 -1.9449250887537402e-05 -2.0119747541994575e-05 -2.0829142582065492e-05 -2.1580106833497730e-05 -2.2375539754370883e-05 -2.3218592394299190e-05 -2.4112693082447634e-05 -2.5061576072885002e-05 -2.6069313567540891e-05 -2.7140351736532635e-05 -2.8279551315182249e-05 -2.9492233245421209e-05 -3.0784229994088487e-05 -3.2161943551411773e-05 -3.3632411271579055e-05 -3.5203380611754152e-05 -3.6883393921216954e-05 -3.8681884930448192e-05 -4.0609289040484157e-05 -4.2677169600401816e-05 -4.4898362537649101e-05 -4.7287142436957462e-05 -4.9859414054736032e-05 -5.2632933762283180e-05 -5.5627565920956223e-05 -5.8865580394292278e-05 -6.2371999063105956e-05 -6.6175000764830293e-05 -7.0306395853487482e-05 -7.4802184097002189e-05 -7.9703212636390625e-05 -8.5055954345351570e-05 -9.0913432191493506e-05 -9.7336321950768418e-05 -1.0439427265817938e-04 -1.1216749296100829e-04 -1.2074866524159489e-04 -1.3024526735473058e-04 -1.4078240203867321e-04 -1.5250626038509720e-04 -1.6558838390576906e-04 -1.8023093974094253e-04 -1.9667328691236184e-04 -2.1520019822093541e-04 -2.3615222263526992e-04 -2.5993883514990743e-04 -2.8705524311163551e-04 -3.1810402978351478e-04 -3.5382325517126342e-04 -3.9512325596299374e-04 -4.4313528052829601e-04 -4.9927639876523133e-04 -5.6533704588381645e-04 -6.4360042275201615e-04 -7.3700731863126192e-04 -8.4938660197502282e-04 -9.8578206181403885e-04 -1.1529228848766893e-03 -1.3599119165047743e-03 -1.6192500719749920e-03 -1.9483891876832407e-03 -2.3721302526318864e-03 -2.9263927001715768e-03 -3.6642145141653217e-03 -4.6653019898501812e-03 -6.0507591410538589e-03 -8.0033896507079906e-03 -1.0785934619412317e-02 -1.4718243630529624e-02 -1.9974820678521188e-02 -2.5794817207757802e-02 -2.8087133625808908e-02 -1.3423439363393241e-02 5.2418344778317326e-02 2.3257947558074030e-01 5.7742920523307761e-01 1.0000000000000000e+00 0.0000000000000000e+00 -7.1713836865704224e-06 -1.0149418960755185e-05 -1.1385282620926796e-05 -1.1854280132919235e-05 -1.2030703503668560e-05 -1.2110681130084400e-05 -1.2165723608229998e-05 -1.2219401130716276e-05 -1.2278877414650818e-05 -1.2346215988991869e-05 -1.2422029678971272e-05 -1.2506561997220677e-05 -1.2599984174673831e-05 -1.2702470543182209e-05 -1.2814215703330053e-05 -1.2935437714445805e-05 -1.3066378467094649e-05 -1.3207303806808323e-05 -1.3358503916175626e-05 -1.3520294016980917e-05 -1.3693015355248051e-05 -1.3877036399857727e-05 -1.4072754195671449e-05 -1.4280595862188047e-05 -1.4501020274385343e-05 -1.4734519960337785e-05 -1.4981623207163556e-05 -1.5242896342535580e-05 -1.5518946188704349e-05 -1.5810422737328866e-05 -1.6118022101689745e-05 -1.6442489757722587e-05 -1.6784624050656339e-05 -1.7145279974998405e-05 -1.7525373301724113e-05 -1.7925885140829310e-05 -1.8347866966718321e-05 -1.8792446078891164e-05 -1.9260831505309267e-05 -1.9754320447330185e-05 -2.0274305398224094e-05 -2.0822282001850082e-05 -2.1399857654042752e-05 -2.2008760891581377e-05 -2.2650851716059685e-05 -2.3328133022296399e-05 -2.4042763219829426e-05 -2.4797070092656634e-05 -2.5593566040896155e-05 -2.6434964978495471e-05 -2.7324201149297934e-05 -2.8264450003910392e-05 -2.9259151270732403e-05 -3.0312034528587137e-05 -3.1427147738794386e-05 -3.2608889145684363e-05 -3.3862042855905987e-05 -3.5191818515531472e-05 -3.6603895755390457e-05 -3.8104474164973940e-05 -3.9700329453516567e-05 -4.1398876504774637e-05 -4.3208240381377242e-05 -4.5137336648578323e-05 -4.7195962392187689e-05 -4.9394899309609896e-05 -5.1746030661317956e-05 -5.4262474455990822e-05 -5.6958735525410983e-05 -5.9850879304280786e-05 -6.2956730758988746e-05 -6.6296102909142339e-05 -6.9891060110538114e-05 -7.3766221842586603e-05 -7.7949114004265442e-05 -8.2470576611216431e-05 -8.7365238371017032e-05 -9.2672070163164378e-05 -9.8435032413371617e-05 -1.0470383554248781e-04 -1.1153483631577547e-04 -1.1899209664480136e-04 -1.2714863825109542e-04 -1.3608793652817471e-04 -1.4590570671878949e-04 -1.5671204629982870e-04 -1.6863401460313418e-04 -1.8181875437655887e-04 -1.9643728672474650e-04 -2.1268914479471510e-04 -2.3080806029070029e-04 -2.5106898039745394e-04 -2.7379677290592631e-04 -2.9937708742774590e-04 -3.2826999134207707e-04 -3.6102719905617788e-04 -3.9831398729013985e-04 -4.4093727204001527e-04 -4.8988185211938965e-04 -5.4635756638118341e-04 -6.1186117098986094e-04 -6.8825825986923916e-04 -7.7789274717091734e-04 -8.8373465556558029e-04 -1.0095817364715084e-03 -1.1603376222355289e-03 -1.3424001133012038e-03 -1.5642099601103087e-03 -1.8370365267207948e-03 -2.1761175014176075e-03 -2.6023338494362402e-03 -3.1447005862414302e-03 -3.8441011827515326e-03 -4.7588806568437721e-03 -5.9730234899481455e-03 -7.6071307187660113e-03 -9.8292364772577419e-03 -1.2849986759284357e-02 -1.6845374493490627e-02 -2.1630929561082569e-02 -2.5615473063999049e-02 -2.2988249970213561e-02 2.4288240560369420e-03 8.6120523242202235e-02 2.8153021869228306e-01 6.1434546410402591e-01 1.0000000000000000e+00 0.0000000000000000e+00 -9.3277517237178047e-06 -1.3143924113190746e-05 -1.4717337633772830e-05 -1.5313173749077325e-05 -1.5538258243583445e-05 -1.5641443237123740e-05 -1.5713060760477765e-05 -1.5782880654047433e-05 -1.5860015096006328e-05 -1.5947146015677138e-05 -1.6045107809355196e-05 -1.6154249735751300e-05 -1.6274815560773612e-05 -1.6407043890042182e-05 -1.6551193626782561e-05 -1.6707550394697749e-05 -1.6876428433327517e-05 -1.7058171592197535e-05 -1.7253154314996005e-05 -1.7461782827379486e-05 -1.7684496550877559e-05 -1.7921769708131775e-05 -1.8174113098008263e-05 -1.8442076064759716e-05 -1.8726248706596174e-05 -1.9027264339574223e-05 -1.9345802190833964e-05 -1.9682590298443537e-05 -2.0038408646878546e-05 -2.0414092607047534e-05 -2.0810536728533443e-05 -2.1228698878104088e-05 -2.1669604710166102e-05 -2.2134352510818260e-05 -2.2624118509339510e-05 -2.3140162728728281e-05 -2.3683835379774751e-05 -2.4256583790417879e-05 -2.4859959937280995e-05 -2.5495628719013333e-05 -2.6165377086985671e-05 -2.6871124066889365e-05 -2.7614931693634322e-05 -2.8399016977101301e-05 -2.9225765097205716e-05 -3.0097743988034330e-05 -3.1017720387309380e-05 -3.1988677457519810e-05 -3.3013834225452054e-05 -3.4096667158431216e-05 -3.5240934112214535e-05 -3.6450700808694542e-05 -3.7730370110102918e-05 -3.9084714555107101e-05 -4.0518912668283702e-05 -4.2038589447272337e-05 -4.3649861440223220e-05 -4.5359387059825879e-05 -4.7174422985450484e-05 -4.9102887474259532e-05 -5.1153431357387678e-05 -5.3335517749316324e-05 -5.5659511898051932e-05 -5.8136782755340146e-05 -6.0779817814352834e-05 -6.3602353024281417e-05 -6.6619520210483150e-05 -6.9848014899938501e-05 -7.3306287620278349e-05 -7.7014762180097225e-05 -8.0996085448363468e-05 -8.5275414145553110e-05 -8.9880744747560280e-05 -9.4843293494188384e-05 -1.0019793534651353e-04 -1.0598371290456148e-04 -1.1224442799225723e-04 -1.1902933060725056e-04 -1.2639392348271863e-04 -1.3440090525396032e-04 -1.4312127994372452e-04 -1.5263566563787119e-04 -1.6303584273433876e-04 -1.7442659262235187e-04 -1.8692789001506456e-04 -2.0067752661502312e-04 -2.1583426284569528e-04 -2.3258162989232893e-04 -2.5113253647752527e-04 -2.7173487569545938e-04 -2.9467838121529678e-04 -3.2030305280078683e-04 -3.4900956342238633e-04 -3.8127218368652486e-04 -4.1765492380736090e-04 -4.5883181249101147e-04 -5.0561253069306459e-04 -5.5897502611488962e-04 -6.2010729049453506e-04 -6.9046125363603390e-04 -7.7182282753602844e-04 -8.6640364576773569e-04 -9.7696218785302833e-04 -1.1069650446767338e-03 -1.2608034843711812e-03 -1.4440868576057870e-03 -1.6640436695664984e-03 -1.9300746948461315e-03 -2.2545222715022986e-03 -2.6537484590943038e-03 -3.1496549319904562e-03 -3.7718303363781982e-03 -4.5605670528265987e-03 -5.5709983573315434e-03 -6.8783694396064602e-03 -8.5832642510009632e-03 -1.0811123414312521e-02 -1.3685406125875809e-02 -1.7208223965007215e-02 -2.0858417017218665e-02 -2.2431307447378181e-02 -1.5170095836736522e-02 1.7864829602413833e-02 1.1035112500387106e-01 3.0766027157664866e-01 6.2738502780039429e-01 1.0000000000000000e+00 0.0000000000000000e+00 -1.1484047420930313e-05 -1.6141590055988208e-05 -1.8053546987107567e-05 -1.8775787477882008e-05 -1.9048806437861742e-05 -1.9174643112250340e-05 -1.9262500091656660e-05 -1.9348271320775510e-05 -1.9442942308221437e-05 -1.9549766277333682e-05 -1.9669775104664105e-05 -1.9803413054552364e-05 -1.9950992175439420e-05 -2.0112813830489449e-05 -2.0289200663859059e-05 -2.0480505495323734e-05 -2.0687114449969156e-05 -2.0909448733766636e-05 -2.1147966203699852e-05 -2.1403163042513855e-05 -2.1675575604964109e-05 -2.1965782437566890e-05 -2.2274406489877390e-05 -2.2602117565731213e-05 -2.2949635054347870e-05 -2.3317730936086919e-05 -2.3707233032761865e-05 -2.4119028506111677e-05 -2.4554067666470899e-05 -2.5013368167073731e-05 -2.5498019611246043e-05 -2.6009188555576173e-05 -2.6548123915380202e-05 -2.7116162846396608e-05 -2.7714737200466039e-05 -2.8345380602788147e-05 -2.9009736149645968e-05 -2.9709564760614017e-05 -3.0446754305991654e-05 -3.1223329656519844e-05 -3.2041463733752096e-05 -3.2903489580912913e-05 -3.3811913529997286e-05 -3.4769429654657195e-05 -3.5778935724071383e-05 -3.6843550789788018e-05 -3.7966634495829069e-05 -3.9151808304022766e-05 -4.0402978957188876e-05 -4.1724364492712687e-05 -4.3120523017380789e-05 -4.4596384475143655e-05 -4.6157285829324441e-05 -4.7809010218542486e-05 -4.9557830584950712e-05 -5.1410558199428375e-05 -5.3374596662773037e-05 -5.5458002233188593e-05 -5.7669551414300247e-05 -6.0018816660227040e-05 -6.2516251168417955e-05 -6.5173284122918492e-05 -6.8002428049747818e-05 -7.1017399958902397e-05 -7.4233258053803741e-05 -7.7666556316199404e-05 -8.1335519888482450e-05 -8.5260244459666818e-05 -8.9462923130207670e-05 -9.3968105029159041e-05 -9.8802991051121384e-05 -1.0399777288569589e-04 -1.0958602227398473e-04 -1.1560513884987508e-04 -1.2209686688177936e-04 -1.2910789314862355e-04 -1.3669054036582478e-04 -1.4490357362526113e-04 -1.5381314092376873e-04 -1.6349387293961186e-04 -1.7403017288458302e-04 -1.8551773469962905e-04 -1.9806533581279300e-04 -2.1179696009428244e-04 -2.2685432052196050e-04 -2.4339986903751506e-04 -2.6162040102276556e-04 -2.8173138709013237e-04 -3.0398220041636027e-04 -3.2866245268907472e-04 -3.5610970636518392e-04 -3.8671890372315288e-04 -4.2095395044698745e-04 -4.5936201601228698e-04 -5.0259127637275068e-04 -5.5141304376637957e-04 -6.0674951988176173e-04 -6.6970879673562667e-04 -7.4162925419725466e-04 -8.2413621439735029e-04 -9.1921467824363835e-04 -1.0293032876830990e-03 -1.1574164669111064e-03 -1.3073041768927086e-03 -1.4836621219810188e-03 -1.6924099074093588e-03 -1.9410609568555786e-03 -2.2392164013141200e-03 -2.5992259627655857e-03 -3.0370718049665662e-03 -3.5735443357676495e-03 -4.2357845608785253e-03 -5.0592423642291341e-03 -6.0899709192125864e-03 -7.3867112164989280e-03 -9.0206663336942043e-03 -1.1065844236226705e-02 -1.3557222040350437e-02 -1.6348340447854968e-02 -1.8679957104189068e-02 -1.8008716508887686e-02 -7.2614236579844043e-03 3.0200706832895493e-02 1.2573046607439645e-01 3.1993430438815740e-01 6.2980889927852113e-01 1.0000000000000000e+00 0.0000000000000000e+00 -1.3633579985352594e-05 -1.9131685382176005e-05 -2.1382092636769057e-05 -2.2230443124842469e-05 -2.2550969381633151e-05 -2.2699053005787758e-05 -2.2802822911500884e-05 -2.2904286210838652e-05 -2.3016271569137107e-05 -2.3142576759037874e-05 -2.3284413163047313e-05 -2.3442309452745804e-05 -2.3616640075741753e-05 -2.3807765865103633e-05 -2.4016071180474833e-05 -2.4241974529780031e-05 -2.4485932550424120e-05 -2.4748442382183712e-05 -2.5030043736717003e-05 -2.5331321016473571e-05 -2.5652905571992889e-05 -2.5995478129811538e-05 -2.6359771439950816e-05 -2.6746573201285571e-05 -2.7156729290037352e-05 -2.7591147271841397e-05 -2.8050800180419088e-05 -2.8536730601361079e-05 -2.9050055145078179e-05 -2.9591969372676823e-05 -3.0163753177775450e-05 -3.0766776609218140e-05 -3.1402506173026875e-05 -3.2072511711351312e-05 -3.2778473945132309e-05 -3.3522192706718572e-05 -3.4305595876491010e-05 -3.5130749108432421e-05 -3.5999866497292150e-05 -3.6915322311521177e-05 -3.7879663835082899e-05 -3.8895625359088765e-05 -3.9966143471735492e-05 -4.1094373882983042e-05 -4.2283709979773528e-05 -4.3537803220175728e-05 -4.4860585504887521e-05 -4.6256293806659000e-05 -4.7729497410823566e-05 -4.9285128045611278e-05 -5.0928513125437225e-05 -5.2665412458990368e-05 -5.4502058968093708e-05 -5.6445203990027614e-05 -5.8502167629539484e-05 -6.0680894668989428e-05 -6.2990016808418798e-05 -6.5438922209752390e-05 -6.8037833285356053e-05 -7.0797893661911175e-05 -7.3731265545613794e-05 -7.6851239106348680e-05 -8.0172355623013192e-05 -8.3710546143940141e-05 -8.7483287774399148e-05 -9.1509780349503813e-05 -9.5811146674842622e-05 -1.0041065971645671e-04 -1.0533400069358868e-04 -1.1060955306941895e-04 -1.1626873831705014e-04 -1.2234639997629632e-04 -1.2888124371212206e-04 -1.3591634299983446e-04 -1.4349972178934956e-04 -1.5168502702149627e-04 -1.6053230655391001e-04 -1.7010891204992943e-04 -1.8049055003159205e-04 -1.9176250775231068e-04 -2.0402108648976319e-04 -2.1737528354082045e-04 -2.3194877271741810e-04 -2.4788224212883147e-04 -2.6533616202307705e-04 -2.8449407438961252e-04 -3.0556651638737460e-04 -3.2879571467450664e-04 -3.5446122322962438e-04 -3.8288672148832496e-04 -4.1444824242313266e-04 -4.4958417075864572e-04 -4.8880744427886073e-04 -5.3272050646516634e-04 -5.8203370919037193e-04 -6.3758806384908186e-04 -7.0038349536890481e-04 -7.7161408799375291e-04 -8.5271225502769475e-04 -9.4540434196137670e-04 -1.0517809276667145e-03 -1.1743860807444343e-03 -1.3163311126507149e-03 -1.4814400178262050e-03 -1.6744358726394992e-03 -1.9011799942645882e-03 -2.1689785557178491e-03 -2.4869742686377777e-03 -2.8666427360342730e-03 -3.3224119582380999e-03 -3.8724142838065436e-03 -4.5393514156874312e-03 -5.3513768586222416e-03 -6.3427000036841369e-03 -7.5530629694062663e-03 -9.0236113639475968e-03 -1.0781684906818230e-02 -1.2791828041580749e-02 -1.4806350591600426e-02 -1.5934905718360634e-02 -1.3510522489476746e-02 -5.0175013750911350e-04 3.9091468026461733e-02 1.3478505413971095e-01 3.2489512117475461e-01 6.2831674497429368e-01 1.0000000000000000e+00 0.0000000000000000e+00 -1.5773889787851573e-05 -2.2109809421946753e-05 -2.4697809649118858e-05 -2.5671905697458676e-05 -2.6039646246197068e-05 -2.6209686609667101e-05 -2.6329088446071916e-05 -2.6445975161039329e-05 -2.6575011162023873e-05 -2.6720527556684612e-05 -2.6883905036156566e-05 -2.7065749034364802e-05 -2.7266491113933107e-05 -2.7486547948147238e-05 -2.7726362961618191e-05 -2.7986418190380951e-05 -2.8267238807178411e-05 -2.8569395913138127e-05 -2.8893509004069724e-05 -2.9240248471967839e-05 -2.9610338236877823e-05 -3.0004558562786657e-05 -3.0423749124681866e-05 -3.0868812382323741e-05 -3.1340717269164644e-05 -3.1840503175239227e-05 -3.2369284233449238e-05 -3.2928253979047219e-05 -3.3518690469423614e-05 -3.4141961901944080e-05 -3.4799532716424016e-05 -3.5492970186645612e-05 -3.6223951575749196e-05 -3.6994271963196943e-05 -3.7805852807390123e-05 -3.8660751259365277e-05 -3.9561170273520628e-05 -4.0509469645604763e-05 -4.1508178133273346e-05 -4.2560006746046544e-05 -4.3667863236051021e-05 -4.4834867883886032e-05 -4.6064370795035387e-05 -4.7359970949501699e-05 -4.8725537160220484e-05 -5.0165231051497181e-05 -5.1683532271465184e-05 -5.3285266284486312e-05 -5.4975635082435081e-05 -5.6760251062907123e-05 -5.8645174360295663e-05 -6.0636954109821789e-05 -6.2742674247150316e-05 -6.4970004372066683e-05 -6.7327256145689960e-05 -6.9823445873693353e-05 -7.2468364204776524e-05 -7.5272653942733996e-05 -7.8247896900061922e-05 -8.1406710869254018e-05 -8.4762858185303202e-05 -8.8331367611074683e-05 -9.2128671278409577e-05 -9.6172758586891247e-05 -1.0048334953807564e-04 -1.0508209054320674e-04 -1.0999277595371824e-04 -1.1524159887567243e-04 -1.2085743571348919e-04 -1.2687216991808347e-04 -1.3332106103415838e-04 -1.4024316584695405e-04 -1.4768181999241984e-04 -1.5568519038549288e-04 -1.6430691036377001e-04 -1.7360681103701449e-04 -1.8365176518964614e-04 -1.9451666399568810e-04 -2.0628555061038038e-04 -2.1905293866882153e-04 -2.3292534941243430e-04 -2.4802310896690022e-04 -2.6448245618662620e-04 -2.8245802151882267e-04 -3.0212575029396675e-04 -3.2368636075168715e-04 -3.4736944758298189e-04 -3.7343836670966759e-04 -4.0219606883402876e-04 -4.3399208922606557e-04 -4.6923095086348745e-04 -5.0838230135388481e-04 -5.5199318392031872e-04 -6.0070294248413517e-04 -6.5526138876319522e-04 -7.1655102173830826e-04 -7.8561429262808519e-04 -8.6368716660068846e-04 -9.5224055798579356e-04 -1.0530316170325308e-03 -1.1681673426617643e-03 -1.3001835944181246e-03 -1.4521432667194199e-03 -1.6277581461056146e-03 -1.8315396999654186e-03 -2.0689845301001303e-03 -2.3468000522115311e-03 -2.6731742861803381e-03 -3.0580888838173054e-03 -3.5136637157492396e-03 -4.0544988108032320e-03 -4.6979338147217489e-03 -5.4640506356697614e-03 -6.3750333308613691e-03 -7.4529630076476125e-03 -8.7135898710959444e-03 -1.0148910238244959e-02 -1.1676874115877141e-02 -1.2994442821751747e-02 -1.3161419116309312e-02 -9.5137900907595555e-03 4.7968955823001246e-03 4.5158441729874231e-02 1.3988807317613722e-01 3.2641860436622372e-01 6.2589571745087580e-01 1.0000000000000000e+00 0.0000000000000000e+00 -1.7903552525007309e-05 -2.5073475262103197e-05 -2.7997689006594976e-05 -2.9097025180914472e-05 -2.9511709023062578e-05 -2.9703467751122147e-05 -2.9838250972752808e-05 -2.9970293370797056e-05 -3.0116094075350870e-05 -3.0280514178363710e-05 -3.0465098963169759e-05 -3.0670525953578124e-05 -3.0897279820012876e-05 -3.1145829779300393e-05 -3.1416675545014702e-05 -3.1710360202722351e-05 -3.2027475100527859e-05 -3.2368662933022001e-05 -3.2734620515534194e-05 -3.3126101604583207e-05 -3.3543919860643162e-05 -3.3988952021398063e-05 -3.4462141359462882e-05 -3.4964501468378926e-05 -3.5497120372879601e-05 -3.6061164953464962e-05 -3.6657885725278289e-05 -3.7288622058480958e-05 -3.7954807910882369e-05 -3.8657978082090823e-05 -3.9399774976406331e-05 -4.0181955914112189e-05 -4.1006401096149654e-05 -4.1875122321526099e-05 -4.2790272495255901e-05 -4.3754155946299929e-05 -4.4769239642754999e-05 -4.5838165462138833e-05 -4.6963763650714161e-05 -4.8149067526495974e-05 -4.9397329478574443e-05 -5.0712038425061871e-05 -5.2096938981754930e-05 -5.3556052552004171e-05 -5.5093700458577143e-05 -5.6714529269055340e-05 -5.8423538610526344e-05 -6.0226111843051045e-05 -6.2128049888590680e-05 -6.4135608465089655e-05 -6.6255539110781687e-05 -6.8495134571965334e-05 -7.0862279138543687e-05 -7.3365504404632293e-05 -7.6014050992711418e-05 -7.8817937053917548e-05 -8.1788034544516428e-05 -8.4936154230720915e-05 -8.8275140380723923e-05 -9.1818976413151512e-05 -9.5582903132508646e-05 -9.9583551263309901e-05 -1.0383909001683152e-04 -1.0836939382282996e-04 -1.1319622998136684e-04 -1.1834347032844521e-04 -1.2383733016539179e-04 -1.2970663827711410e-04 -1.3598314284921903e-04 -1.4270185886444169e-04 -1.4990146311991956e-04 -1.5762474406644432e-04 -1.6591911528590107e-04 -1.7483720295646349e-04 -1.8443751921188903e-04 -1.9478523556285931e-04 -2.0595307330323014e-04 -2.1802233067302800e-04 -2.3108407035184363e-04 -2.4524049605381259e-04 -2.6060655235146999e-04 -2.7731178761380900e-04 -2.9550252858656927e-04 -3.1534442639609482e-04 -3.3702544513392806e-04 -3.6075937781738962e-04 -3.8678999423100174e-04 -4.1539594874370419e-04 -4.4689660218205450e-04 -4.8165894580171867e-04 -5.2010585950009001e-04 -5.6272598771166347e-04 -6.1008557