<?xml version='1.0' encoding='utf-8'?>
<VTKFile type="UnstructuredGrid" version="0.1" byte_order="LittleEndian">
  <UnstructuredGrid>
    <Piece NumberOfPoints="16384" NumberOfCells="16129">
      <PointData>
        <DataArray type="Float64" Name="velocity_u" NumberOfComponents="1">0.0000000000000000e+00 0.0000000000000000e+00 0.0000000000000000e+00 0.0000000000000000e+00 0.0000000000000000e+00 0.0000000000000000e+00 0.0000000000000000e+00 0.0000000000000000e+00 0.0000000000000000e+00 0.0000000000000000e+00 0.0000000000000000e+00 0.0000000000000000e+00 0.0000000000000000e+00 0.0000000000000000e+00 0.0000000000000000e+00 0.0000000000000000e+00 0.0000000000000000e+00 0.0000000000000000e+00 0.0000000000000000e+00 0.0000000000000000e+00 0.0000000000000000e+00 0.0000000000000000e+00 0.0000000000000000e+00 0.0000000000000000e+00 0.0000000000000000e+00 0.0000000000000000e+00 0.0000000000000000e+00 0.0000000000000000e+00 0.0000000000000000e+00 0.0000000000000000e+00 0.0000000000000000e+00 0.0000000000000000e+00 0.0000000000000000e+00 0.0000000000000000e+00 0.0000000000000000e+00 0.0000000000000000e+00 0.0000000000000000e+00 0.0000000000000000e+00 0.0000000000000000e+00 0.0000000000000000e+00 0.0000000000000000e+00 0.0000000000000000e+00 0.0000000000000000e+00 0.0000000000000000e+00 0.0000000000000000e+00 0.0000000000000000e+00 0.0000000000000000e+00 0.0000000000000000e+00 0.0000000000000000e+00 0.0000000000000000e+00 0.0000000000000000e+00 0.0000000000000000e+00 0.0000000000000000e+00 0.0000000000000000e+00 0.0000000000000000e+00 0.0000000000000000e+00 0.0000000000000000e+00 0.0000000000000000e+00 0.0000000000000000e+00 0.0000000000000000e+00 0.0000000000000000e+00 0.0000000000000000e+00 0.0000000000000000e+00 0.0000000000000000e+00 0.0000000000000000e+00 0.0000000000000000e+00 0.0000000000000000e+00 0.0000000000000000e+00 0.0000000000000000e+00 0.0000000000000000e+00 0.0000000000000000e+00 0.0000000000000000e+00 0.0000000000000000e+00 0.0000000000000000e+00 0.0000000000000000e+00 0.0000000000000000e+00 0.0000000000000000e+00 0.0000000000000000e+00 0.0000000000000000e+00 0.0000000000000000e+00 0.0000000000000000e+00 0.0000000000000000e+00 0.0000000000000000e+00 0.0000000000000000e+00 0.0000000000000000e+00 0.0000000000000000e+00 0.0000000000000000e+00 0.0000000000000000e+00 0.0000000000000000e+00 0.0000000000000000e+00 0.0000000000000000e+00 0.0000000000000000e+00 0.0000000000000000e+00 0.0000000000000000e+00 0.0000000000000000e+00 0.0000000000000000e+00 0.0000000000000000e+00 0.0000000000000000e+00 0.0000000000000000e+00 0.0000000000000000e+00 0.0000000000000000e+00 0.0000000000000000e+00 0.0000000000000000e+00 0.0000000000000000e+00 0.0000000000000000e+00 0.0000000000000000e+00 0.0000000000000000e+00 0.0000000000000000e+00 0.0000000000000000e+00 0.0000000000000000e+00 0.0000000000000000e+00 0.0000000000000000e+00 0.0000000000000000e+00 0.0000000000000000e+00 0.0000000000000000e+00 0.0000000000000000e+00 0.0000000000000000e+00 0.0000000000000000e+00 0.0000000000000000e+00 0.0000000000000000e+00 0.0000000000000000e+00 0.0000000000000000e+00 0.0000000000000000e+00 0.0000000000000000e+00 0.0000000000000000e+00 0.0000000000000000e+00 0.0000000000000000e+00 1.0000000000000000e+00 0.0000000000000000e+00 -1.2484217224628948e-06 -2.1045867697945905e-06 -2.5411941336494622e-06 -2.7322287991462430e-06 -2.8079876400056176e-06 -2.8379464387151157e-06 -2.8529552839643001e-06 -2.8648862193338508e-06 -2.8777080793968300e-06 -2.8925317384989951e-06 -2.9095811258301064e-06 -2.9288627759761642e-06 -2.9503591525723946e-06 -2.9740708520784740e-06 -3.0000189393425556e-06 -3.0282402070452827e-06 -3.0587830945713429e-06 -3.0917051950061879e-06 -3.1270719055695214e-06 -3.1649557605515830e-06 -3.2054361809973845e-06 -3.2485995036656909e-06 -3.2945391903554866e-06 -3.3433561283189491e-06 -3.3951589686599106e-06 -3.4500645084792646e-06 -3.5081981533356462e-06 -3.5696944716444827e-06 -3.6346978076323794e-06 -3.7033629172128497e-06 -3.7758556402194655e-06 -3.8523536631615926e-06 -3.9330474026444549e-06 -4.0181409763414925e-06 -4.1078532098490896e-06 -4.2024186864887617e-06 -4.3020889152283249e-06 -4.4071336799525745e-06 -4.5178425516273347e-06 -4.6345264997110519e-06 -4.7575195952101250e-06 -4.8871808836989358e-06 -5.0238965062242157e-06 -5.1680820598213695e-06 -5.3201851450012825e-06 -5.4806881195605330e-06 -5.6501111715112287e-06 -5.8290157989709703e-06 -6.0180086688980153e-06 -6.2177457952592963e-06 -6.4289370996585058e-06 -6.6523515347641285e-06 -6.8888228934706623e-06 -7.1392562798064744e-06 -7.4046352149233755e-06 -7.6860295204381593e-06 -7.9846042204032337e-06 -8.3016295903752858e-06 -8.6384923607261704e-06 -8.9967081948820642e-06 -9.3779357822527055e-06 -9.7839928854356656e-06 -1.0216874482778054e-05 -1.0678773133963090e-05 -1.1172101990627867e-05 -1.1699521088303130e-05 -1.2263967420255218e-05 -1.2868689153893426e-05 -1.3517284614355265e-05 -1.4213747061846806e-05 -1.4962516321279793e-05 -1.5768538181371662e-05 -1.6637332780525907e-05 -1.7575073836416108e-05 -1.8588680868367833e-05 -1.9685926573167875e-05 -2.0875562046345821e-05 -2.2167463548202061e-05 -2.3572805120620615e-05 -2.5104261834624524e-05 -2.6776250057856263e-05 -2.8605213405221284e-05 -3.0609964177202608e-05 -3.2812091086288133e-05 -3.5236448049462670e-05 -3.7911744920642609e-05 -4.0871265216505959e-05 -4.4153739681507738e-05 -4.7804413958196801e-05 -5.1876362915209456e-05 -5.6432118122169575e-05 -6.1545692300464075e-05 -6.7305113179965732e-05 -7.3815617644854258e-05 -8.1203704676619860e-05 -8.9622313912181246e-05 -9.9257495478489606e-05 -1.1033707156628718e-04 -1.2314198128736623e-04 -1.3802128085837117e-04 -1.5541217872406426e-04 -1.7586708503343642e-04 -2.0009056056081060e-04 -2.2899043518248511e-04 -2.6374951563440402e-04 -3.0592771456216660e-04 -3.5760997078966431e-04 -4.2162451963022177e-04 -5.0187170637169473e-04 -6.0383078329182818e-04 -7.3536048997436209e-04 -9.0799565390882236e-04 -1.1390941102868242e-03 -1.4554403373864011e-03 -1.8992701638986128e-03 -2.5379828779208530e-03 -3.4783159553444421e-03 -4.8822010089084383e-03 -6.9693055343414377e-03 -9.9589569751185290e-03 -1.3831119492940004e-02 -1.7627011472220015e-02 -1.7584886707120502e-02 -1.7326241696830110e-03 6.9237345433205436e-02 3.2545679585498660e-01 1.0000000000000000e+00 0.0000000000000000e+00 -3.3517798287743795e-06 -5.2853297020176441e-06 -6.2840417738519662e-06 -6.7401087989433253e-06 -6.9322445504550137e-06 -7.0138320476136334e-06 -7.0563457003336614e-06 -7.0889982632096021e-06 -7.1224004995170247e-06 -7.1599642475952360e-06 -7.2026365513061639e-06 -7.2506360107290307e-06 -7.3040168514479298e-06 -7.3628265364282266e-06 -7.4271390320218726e-06 -7.4970560951638935e-06 -7.5727030701743345e-06 -7.6542253524891530e-06 -7.7417862734953862e-06 -7.8355660917155335e-06 -7.9357617389513817e-06 -8.0425870644167669e-06 -8.1562733845842234e-06 -8.2770702105558366e-06 -8.4052461080095041e-06 -8.5410897096985253e-06 -8.6849109047582167e-06 -8.8370421865383172e-06 -8.9978401172397800e-06 -9.1676869009097047e-06 -9.3469921102731546e-06 -9.5361946166376212e-06 -9.7357647194038768e-06 -9.9462064340328801e-06 -1.0168059934865000e-05 -1.0401904226172158e-05 -1.0648360132691401e-05 -1.0908093629429823e-05 -1.1181819460238912e-05 -1.1470305023319567e-05 -1.1774374601474439e-05 -1.2094914058886852e-05 -1.2432876059754604e-05 -1.2789285788040874e-05 -1.3165247181624175e-05 -1.3561949801190408e-05 -1.3980676481866338e-05 -1.4422811822019744e-05 -1.4889851497870515e-05 -1.5383412484473463e-05 -1.5905244414994277e-05 -1.6457242314633767e-05 -1.7041460803651440e-05 -1.7660129808422112e-05 -1.8315671975468745e-05 -1.9010722158635049e-05 -1.9748149315367980e-05 -2.0531081011155267e-05 -2.1362930787363847e-05 -2.2247428898825901e-05 -2.3188657047330903e-05 -2.4191087604159030e-05 -2.5259627764187032e-05 -2.6399669369628884e-05 -2.7617145497495505e-05 -2.8918594925674805e-05 -3.0311235477421184e-05 -3.1803047507515663e-05 -3.3402869368444513e-05 -3.5120507003755367e-05 -3.6966859823514354e-05 -3.8954065400316415e-05 -4.1095666478379788e-05 -4.3406804575373201e-05 -4.5904444754167563e-05 -4.8607636852859006e-05 -5.1537820231374383e-05 -5.4719181020351814e-05 -5.8179072051983967e-05 -6.1948507181654893e-05 -6.6062745159323940e-05 -7.0561982939399543e-05 -7.5492182485044059e-05 -8.0906059337305009e-05 -8.6864268396441777e-05 -9.3436833343583258e-05 -1.0070487876971776e-04 -1.0876273829988858e-04 -1.1772053177952585e-04 -1.2770733258725761e-04 -1.3887508193286872e-04 -1.5140345340780209e-04 -1.6550593490048218e-04 -1.8143748135989195e-04 -1.9950420822737182e-04 -2.2007575732597130e-04 -2.4360119249221046e-04 -2.7062959564538700e-04 -3.0183698126799773e-04 -3.3806179211054042e-04 -3.8035217050976731e-04 -4.3002957266757640e-04 -4.8877534985162195e-04 -5.5875003312818542e-04 -6.4275985698823907e-04 -7.4449259821381467e-04 -8.6885686549526085e-04 -1.0224786566078573e-03 -1.2144417625832634e-03 -1.4574140064271580e-03 -1.7693957680718808e-03 -2.1764867342166116e-03 -2.7173239432207448e-03 -3.4502086336151137e-03 -4.4642767336822084e-03 -5.8957217404885884e-03 -7.9468912608643902e-03 -1.0894275379512562e-02 -1.5037943863682646e-02 -2.0464800519651601e-02 -2.6328183710283445e-02 -2.9008843541861562e-02 -1.7837040470272202e-02 3.4190688375259057e-02 1.8584397432096100e-01 5.1944509222215685e-01 1.0000000000000000e+00 0.0000000000000000e+00 -5.8876390514483435e-06 -9.0222258151440320e-06 -1.0625352562613739e-05 -1.1366915322464166e-05 -1.1688516328803886e-05 -1.1830774371605420e-05 -1.1907257042558557e-05 -1.1965631140466366e-05 -1.2023958134035329e-05 -1.2088462857284491e-05 -1.2161108328277242e-05 -1.2242483530030940e-05 -1.2332799180455711e-05 -1.2432196997391509e-05 -1.2540833266664546e-05 -1.2658895903010781e-05 -1.2786604893847523e-05 -1.2924210057776691e-05 -1.3071989343942176e-05 -1.3230248100771930e-05 -1.3399319152269986e-05 -1.3579563446736828e-05 -1.3771371079957373e-05 -1.3975162576133519e-05 -1.4191390402256028e-05 -1.4420540738775673e-05 -1.4663135510654610e-05 -1.4919734642110344e-05 -1.5190938502276422e-05 -1.5477390562514575e-05 -1.5779780325990346e-05 -1.6098846567312658e-05 -1.6435380865637982e-05 -1.6790231411662372e-05 -1.7164307134620637e-05 -1.7558582252893239e-05 -1.7974101322445603e-05 -1.8411984774659165e-05 -1.8873434911777714e-05 -1.9359742408635099e-05 -1.9872293459067141e-05 -2.0412577691882487e-05 -2.0982196892897995e-05 -2.1582874543367392e-05 -2.2216466274750952e-05 -2.2884971427405310e-05 -2.3590545865816588e-05 -2.4335516109981365e-05 -2.5122394863288260e-05 -2.5953898169291064e-05 -2.6832964523976032e-05 -2.7762776185781951e-05 -2.8746782814682687e-05 -2.9788727652354573e-05 -3.0892676672977872e-05 -3.2063051221183546e-05 -3.3304664548657556e-05 -3.4622762628360956e-05 -3.6023069840617072e-05 -3.7511840368073497e-05 -3.9095916133637110e-05 -4.0782792028506091e-05 -4.2580689380124643e-05 -4.4498639050718701e-05 -4.6546575796793212e-05 -4.8735445481488605e-05 -5.1077326898733349e-05 -5.3585570581112817e-05 -5.6274957569391263e-05 -5.9161881369716561e-05 -6.2264556672202053e-05 -6.5603259365769911e-05 -6.9200603585610896e-05 -7.3081862391955645e-05 -7.7275339580647870e-05 -8.1812801822277948e-05 -8.6729982653951606e-05 -9.2067172240351767e-05 -9.7869909573312984e-05 -1.0418979746216911e-04 -1.1108546517187506e-04 -1.1862370917355516e-04 -1.2688085026866226e-04 -1.3594435516307043e-04 -1.4591478141645560e-04 -1.5690811855578545e-04 -1.6905861858109382e-04 -1.8252223563191221e-04 -1.9748082575409166e-04 -2.1414729864008668e-04 -2.3277197091666561e-04 -2.5365044640326647e-04 -2.7713344667619391e-04 -3.0363914895091722e-04 -3.3366877267457273e-04 -3.6782640643035701e-04 -4.0684441109954266e-04 -4.5161621856933983e-04 -5.0323902753288726e-04 -5.6306986764685749e-04 -6.3279990116719932e-04 -7.1455387374729266e-04 -8.1102464282417912e-04 -9.2565722840192452e-04 -1.0629037009738003e-03 -1.2285808225881015e-03 -1.4303789698172210e-03 -1.6785973188258984e-03 -1.9872229308067271e-03 -2.3755406661871543e-03 -2.8705727358042670e-03 -3.5108210485420162e-03 -4.3520302514351182e-03 -5.4759339698909953e-03 -7.0028254349465248e-03 -9.1070402506629750e-03 -1.2027427272561292e-02 -1.6043660263006871e-02 -2.1334788943943458e-02 -2.7514917401439781e-02 -3.2406071823432768e-02 -2.9237189355770871e-02 -1.1760196913269553e-03 8.6377630482509654e-02 2.8502054700593804e-01 6.2045479988614005e-01 1.0000000000000000e+00 0.0000000000000000e+00 -8.6068520105520223e-06 -1.3012701488339794e-05 -1.5239239176746013e-05 -1.6269766409155259e-05 -1.6721963296093054e-05 -1.6926459928069568e-05 -1.7038866454269090e-05 -1.7124984236948139e-05 -1.7210204932041226e-05 -1.7303584610123722e-05 -1.7408164110764441e-05 -1.7524961837350767e-05 -1.7654388740302458e-05 -1.7796710394786264e-05 -1.7952185195509671e-05 -1.8121101014706702e-05 -1.8303782908654740e-05 -1.8500593787854104e-05 -1.8711934087490788e-05 -1.8938241867038602e-05 -1.9179993530620710e-05 -1.9437705061581544e-05 -1.9711933638827777e-05 -2.0003279569875051e-05 -2.0312388545852805e-05 -2.0639954237402400e-05 -2.0986721212432347e-05 -2.1353488133455491e-05 -2.1741111226418999e-05 -2.2150508073551343e-05 -2.2582661797880865e-05 -2.3038625660818302e-05 -2.3519528055386408e-05 -2.4026577908975310e-05 -2.4561070583696234e-05 -2.5124394383638904e-05 -2.5718037716013391e-05 -2.6343596891871550e-05 -2.7002784587205677e-05 -2.7697439087223154e-05 -2.8429534480537887e-05 -2.9201191905438725e-05 -3.0014691879849963e-05 -3.0872487789466668e-05 -3.1777220723040930e-05 -3.2731735879915437e-05 -3.3739100695797908e-05 -3.4802624787341584e-05 -3.5925881922186741e-05 -3.7112734371561649e-05 -3.8367360007192806e-05 -3.9694282387480386e-05 -4.1098404071231829e-05 -4.2585043591929247e-05 -4.4159976709975676e-05 -4.5829482537014941e-05 -4.7600395041052325e-05 -4.9480160570637896e-05 -5.1476902332965921e-05 -5.3599492902910978e-05 -5.5857635779838008e-05 -5.8261957099612296e-05 -6.0824109029831237e-05 -6.3556886787611522e-05 -6.6474361319771955e-05 -6.9592029781980342e-05 -7.2926986486103918e-05 -7.6498117746571213e-05 -8.0326324541353782e-05 -8.4434777278311605e-05 -8.8849207848811705e-05 -9.3598245493902693e-05 -9.8713804148564362e-05 -1.0423152998617508e-04 -1.1019131973798867e-04 -1.1663792299174184e-04 -1.2362164415256676e-04 -1.3119916239872774e-04 -1.3943449234302675e-04 -1.4840011406453665e-04 -1.5817830690932950e-04 -1.6886272777935513e-04 -1.8056028495000204e-04 -1.9339337284905928e-04 -2.0750254843361317e-04 -2.2304974738904517e-04 -2.4022216459306699e-04 -2.5923695885407560e-04 -2.8034698378445467e-04 -3.0384780030480874e-04 -3.3008630134499469e-04 -3.5947137771275299e-04 -3.9248718060812629e-04 -4.2970970884486146e-04 -4.7182768452233234e-04 -5.1966899657625754e-04 -5.7423442530453038e-04 -6.3674096601665903e-04 -7.0867791066427034e-04 -7.9188002974040948e-04 -8.8862388787937956e-04 -1.0017557574578553e-03 -1.1348631274015666e-03 -1.2925070083895074e-03 -1.4805399808923508e-03 -1.7065465922508217e-03 -1.9804604697392083e-03 -2.3154398134347946e-03 -2.7291250807093045e-03 -3.2454674014488778e-03 -3.8974127723218326e-03 -4.7308588103722243e-03 -5.8104358996903535e-03 -7.2276370071331824e-03 -9.1110403123632611e-03 -1.1635060477901783e-02 -1.5013109047102643e-02 -1.9432180669632124e-02 -2.4816520729505524e-02 -3.0163527550217548e-02 -3.1951245747050383e-02 -2.0882822489849989e-02 2.3278227958605142e-02 1.3530825545657837e-01 3.5273403414761662e-01 6.7149576199672711e-01 1.0000000000000000e+00 0.0000000000000000e+00 -1.1390363337048183e-05 -1.7102434348367040e-05 -1.9962834066188582e-05 -2.1282540828052214e-05 -2.1863580444255625e-05 -2.2129229595214864e-05 -2.2277361252129858e-05 -2.2391562367964919e-05 -2.2504257351866383e-05 -2.2627179880000606e-05 -2.2764392015697916e-05 -2.2917331116738138e-05 -2.3086614507660769e-05 -2.3272641300337880e-05 -2.3475780693550779e-05 -2.3696427270550878e-05 -2.3935016200239264e-05 -2.4192027300697732e-05 -2.4467986506621345e-05 -2.4763467102883028e-05 -2.5079091284303353e-05 -2.5415532102289971e-05 -2.5773515766506339e-05 -2.6153824303565437e-05 -2.6557298603605021e-05 -2.6984841862088584e-05 -2.7437423382708228e-05 -2.7916082712348674e-05 -2.8421934138528128e-05 -2.8956171628669828e-05 -2.9520074272989013e-05 -3.0115012235315306e-05 -3.0742453204981428e-05 -3.1403969403434293e-05 -3.2101245260394760e-05 -3.2836085856489909e-05 -3.3610426158197691e-05 -3.4426341054947513e-05 -3.5286056289053802e-05 -3.6191960454076412e-05 -3.7146618219835282e-05 -3.8152784856812425e-05 -3.9213422118528410e-05 -4.0331715644186717e-05 -4.1511094140952306e-05 -4.2755250575830816e-05 -4.4068165523430857e-05 -4.5454132848361152e-05 -4.6917788058162731e-05 -4.8464139756545369e-05 -5.0098604555183598e-05 -5.1827045729687883e-05 -5.3655816028484376e-05 -5.5591805275265371e-05 -5.7642493486492489e-05 -5.9816010140011028e-05 -6.2121200259337146e-05 -6.4567698253263864e-05 -6.7166010714837722e-05 -6.9927609408689916e-05 -7.2865035679398266e-05 -7.5992017833589708e-05 -7.9323603548825907e-05 -8.2876309626523474e-05 -8.6668291482673817e-05 -9.0719535160365428e-05 -9.5052075446814714e-05 -9.9690244368991191e-05 -1.0466095474708009e-04 -1.0999402419934941e-04 -1.1572254636065857e-04 -1.2188331751399978e-04 -1.2851732792270231e-04 -1.3567032863603471e-04 -1.4339348716778635e-04 -1.5174414858303793e-04 -1.6078672134109344e-04 -1.7059371056176324e-04 -1.8124692667006084e-04 -1.9283890436792731e-04 -2.0547457428851819e-04 -2.1927323805180036e-04 -2.3437090909562267e-04 -2.5092309758465938e-04 -2.6910813687633893e-04 -2.8913117189194608e-04 -3.1122895967545925e-04 -3.3567567221502904e-04 -3.6278994214106088e-04 -3.9294345649351490e-04 -4.2657148894077106e-04 -4.6418587270148496e-04 -5.0639106322788042e-04 -5.5390413594165607e-04 -6.0757982679592504e-04 -6.6844207505131249e-04 -7.3772400700877977e-04 -8.1691895601539990e-04 -9.0784601452369162e-04 -1.0127348668472480e-03 -1.1343364084847815e-03 -1.2760681323474281e-03 -1.4422067861474441e-03 -1.6381458645919828e-03 -1.8707428046227461e-03 -2.1487913815404084e-03 -2.4836703369532304e-03 -2.8902419544390434e-03 -3.3881071444571715e-03 -4.0033697166468006e-03 -4.7711219287740105e-03 -5.7389211117089755e-03 -6.9715137711169111e-03 -8.5567363379613435e-03 -1.0611132646108471e-02 -1.3279280636279105e-02 -1.6707783395494093e-02 -2.0941346825928644e-02 -2.5611838103756276e-02 -2.9143400319786652e-02 -2.6990587368021509e-02 -8.4018323744999221e-03 4.7695595570049459e-02 1.7285330031350205e-01 3.9368485631879263e-01 6.9556025533508758e-01 1.0000000000000000e+00 0.0000000000000000e+00 -1.4188565532074668e-05 -2.1221029529777650e-05 -2.4720697785039135e-05 -2.6329621636139037e-05 -2.7037930633183829e-05 -2.7363321193617830e-05 -2.7546341228910237e-05 -2.7688252988653040e-05 -2.7828317232936052e-05 -2.7980801059516164e-05 -2.8150707557850855e-05 -2.8339855850565142e-05 -2.8549055360330605e-05 -2.8778834851844521e-05 -2.9029674397597590e-05 -2.9302076421961941e-05 -2.9596587266057225e-05 -2.9913804293403027e-05 -3.0254379104753997e-05 -3.0619019948183201e-05 -3.1008494176231862e-05 -3.1423630960102790e-05 -3.1865324328346657e-05 -3.2334536589603851e-05 -3.2832302183057907e-05 -3.3359731951017229e-05 -3.3918017800702626e-05 -3.4508437759236557e-05 -3.5132361493167833e-05 -3.5791256384136879e-05 -3.6486694203145559e-05 -3.7220358377022468e-05 -3.7994051863962109e-05 -3.8809705730796936e-05 -3.9669388556950398e-05 -4.0575316740705614e-05 -4.1529865730498921e-05 -4.2535582239941202e-05 -4.3595197602138440e-05 -4.4711642455914504e-05 -4.5888062888968669e-05 -4.7127838100937240e-05 -4.8434599708616145e-05 -4.9812252944815955e-05 -5.1265000043294047e-05 -5.2797366023185220e-05 -5.4414227044440538e-05 -5.6120841618161120e-05 -5.7922885109261890e-05 -5.9826487979216205e-05 -6.1838278123408337e-05 -6.3965427688741331e-05 -6.6215704974809529e-05 -6.8597532198658617e-05 -7.1120049872766761e-05 -7.3793188493422236e-05 -7.6627748425730404e-05 -7.9635489201760663e-05 -8.2829229597395569e-05 -8.6222959830973384e-05 -8.9831967403801883e-05 -9.3672978589348735e-05 -9.7764317996250772e-05 -1.0212608876237078e-04 -1.0678037616981800e-04 -1.1175147816763832e-04 -1.1706616712542380e-04 -1.2275398767272279e-04 -1.2884759601774272e-04 -1.3538314727353279e-04 -1.4240073884844693e-04 -1.4994491927633867e-04 -1.5806527320536698e-04 -1.6681709539293112e-04 -1.7626216941210072e-04 -1.8646966980868143e-04 -1.9751720995654344e-04 -2.0949206248894737e-04 -2.2249258475277891e-04 -2.3662988831445696e-04 -2.5202980035307393e-04 -2.6883517603233978e-04 -2.8720863356219224e-04 -3.0733579904757816e-04 -3.2942916980418819e-04 -3.5373273243669175e-04 -3.8052750400261809e-04 -4.1013820545004960e-04 -4.4294133232543700e-04 -4.7937495860693490e-04 -5.1995069780694844e-04 -5.6526836246937424e-04 -6.1603401857427255e-04 -6.7308233251880609e-04 -7.3740437346157752e-04 -8.1018238950318643e-04 -8.9283355101499057e-04 -9.8706529080102028e-04 -1.0949457334869703e-03 -1.2189938811767542e-03 -1.3622958259500665e-03 -1.5286554628184366e-03 -1.7227912179163685e-03 -1.9505945084310669e-03 -2.2194714627034114e-03 -2.5387974524035107e-03 -2.9205249588328194e-03 -3.3800000079722715e-03 -3.9370612751660726e-03 -4.6175175173426876e-03 -5.4551152453650971e-03 -6.4940903325481228e-03 -7.7922501654958849e-03 -9.4239696203252989e-03 -1.1480675880587980e-02 -1.4061105270492950e-02 -1.7229302612474979e-02 -2.0882974604522014e-02 -2.4397614057627123e-02 -2.5774169162049668e-02 -1.9867579302556480e-02 4.5763566637706801e-03 6.7980250351908258e-02 1.9823996716794900e-01 4.1571246841792325e-01 7.0466055167978137e-01 1.0000000000000000e+00 0.0000000000000000e+00 -1.6982713854800153e-05 -2.5338761395983236e-05 -2.9479613217704757e-05 -3.1377706104243693e-05 -3.2212311986695731e-05 -3.2596378601612745e-05 -3.2813457085237111e-05 -3.2982510628968136e-05 -3.3149557223543542e-05 -3.3331312242622108e-05 -3.3533658691635170e-05 -3.3758760770744515e-05 -3.4007600227402755e-05 -3.4280825535502659e-05 -3.4579022758211875e-05 -3.4902799586156643e-05 -3.5252811827609376e-05 -3.5629772861835315e-05 -3.6034458288856538e-05 -3.6467709383923648e-05 -3.6930436402371021e-05 -3.7423622051878192e-05 -3.7948325272984603e-05 -3.8505685423348963e-05 -3.9096926908790702e-05 -3.9723364249259822e-05 -4.0386407566817815e-05 -4.1087568543146713e-05 -4.1828466947466248e-05 -4.2610837818263544e-05 -4.3436539316885525e-05 -4.4307561249521929e-05 -4.5226034311566836e-05 -4.6194240177940584e-05 -4.7214622557958567e-05 -4.8289799270692096e-05 -4.9422575381882807e-05 -5.0615957520271916e-05 -5.1873169570529896e-05 -5.3197669918389262e-05 -5.4593170340409418e-05 -5.6063656627864266e-05 -5.7613411153352899e-05 -5.9247037694697634e-05 -6.0969488800723698e-05 -6.2786095896634483e-05 -6.4702602360860618e-05 -6.6725199966547602e-05 -6.8860569178820207e-05 -7.1115923739525558e-05 -7.3499059925066613e-05 -7.6018411011483016e-05 -7.8683107713046306e-05 -8.1503045424289515e-05 -8.4488959014512451e-05 -8.7652505994051285e-05 -9.1006359187117538e-05 -9.4564310317113881e-05 -9.8341385939490638e-05 -1.0235397720690337e-04 -1.0661998532883086e-04 -1.1115898509469343e-04 -1.1599240907950996e-04 -1.2114375528761994e-04 -1.2663882150070968e-04 -1.3250597044938615e-04 -1.3877643059567100e-04 -1.4548463777612247e-04 -1.5266862383638298e-04 -1.6037045982386595e-04 -1.6863676266458115e-04 -1.7751927543846748e-04 -1.8707553322509947e-04 -1.9736962922345670e-04 -2.0847309855296037e-04 -2.2046593983150926e-04 -2.3343779877826759e-04 -2.4748934390511499e-04 -2.6273387014968524e-04 -2.7929917233929664e-04 -2.9732973965685398e-04 -3.1698933519329819e-04 -3.3846403824919951e-04 -3.6196584222408481e-04 -3.8773692294225199e-04 -4.1605472142725150e-04 -4.4723801812135368e-04 -4.8165421651372544e-04 -5.1972811034890710e-04 -5.6195247926954604e-04 -6.0890094424785992e-04 -6.6124362848391698e-04 -7.1976631920917683e-04 -7.8539401509456332e-04 -8.5921999136761510e-04 -9.4254184216050309e-04 -1.0369063841610263e-03 -1.1441658633797641e-03 -1.2665486474141227e-03 -1.4067485590763258e-03 -1.5680382917241816e-03 -1.7544140462219992e-03 -1.9707807567371518e-03 -2.2231901714375737e-03 -2.5191477766235730e-03 -2.8680091929251866e-03 -3.2814921790228009e-03 -3.7743362564800257e-03 -4.3651465502296972e-03 -5.0774570407680847e-03 -5.9410280613148275e-03 -6.9933169638549519e-03 -8.2808243470238532e-03 -9.8593186823110242e-03 -1.1789931121650150e-02 -1.4122534922390902e-02 -1.6843201384894389e-02 -1.9727342756183569e-02 -2.1966115053131039e-02 -2.1311083592759704e-02 -1.2380578607631499e-02 1.5980087155787959e-02 8.3018940552727932e-02 2.1375675682890138e-01 4.2569763181576381e-01 7.0575911610300046e-01 1.0000000000000000e+00 0.0000000000000000e+00 -1.9765948146732755e-05 -2.9443274629605355e-05 -3.4224883600767752e-05 -3.6411752995149273e-05 -3.7372020200828634e-05 -3.7814042212258158e-05 -3.8064514965068445e-05 -3.8260147617754720e-05 -3.8453698995508257e-05 -3.8664296001036183e-05 -3.8898666604925440e-05 -3.9159294060458101e-05 -3.9447315221002055e-05 -3.9763487483433569e-05 -4.0108496139908457e-05 -4.0483049628311902e-05 -4.0887909808141494e-05 -4.1323903093329750e-05 -4.1791926162785963e-05 -4.2292950253484170e-05 -4.2828025202263484e-05 -4.3398283618271331e-05 -4.4004945369328909e-05 -4.4649322489709652e-05 -4.5332824544542594e-05 -4.6056964443643350e-05 -4.6823364725735218e-05 -4.7633764400070818e-05 -4.8490026454896608e-05 -4.9394146091096999e-05 -5.0348259682512147e-05 -5.1354654481529163e-05 -5.2415779167422543e-05 -5.3534255377291809e-05 -5.4712890318039467e-05 -5.5954690505391485e-05 -5.7262876707546826e-05 -5.8640900264950513e-05 -6.0092460993700888e-05 -6.1621526813805753e-05 -6.3232355185507017e-05 -6.4929516505305473e-05 -6.6717919751389028e-05 -6.8602840711892428e-05 -7.0589953046911339e-05 -7.2685362391371319e-05 -7.4895643820686522e-05 -7.7227883158287222e-05 -7.9689722619263528e-05 -8.2289411205132727e-05 -8.5035860316035955e-05 -8.7938705272393571e-05 -9.1008373600877157e-05 -9.4256160896852279e-05 -9.7694315041016349e-05 -1.0133612977213287e-04 -1.0519604895999349e-04 -1.0928978306086561e-04 -1.1363443922629771e-04 -1.1824866675371459e-04 -1.2315282006665886e-04 -1.2836914179499938e-04 -1.3392196864991013e-04 -1.3983796309306311e-04 -1.4614637455812613e-04 -1.5287933477168070e-04 -1.6007219217943600e-04 -1.6776389107082626e-04 -1.7599740222980703e-04 -1.8482021340632498e-04 -1.9428488901588310e-04 -2.0444970974629322e-04 -2.1537940503243142e-04 -2.2714599424886265e-04 -2.3982975504173944e-04 -2.5352034000201528e-04 -2.6831806724690539e-04 -2.8433541631691462e-04 -3.0169876687742976e-04 -3.2055042432681008e-04 -3.4105098542906693e-04 -3.6338210917648023e-04 -3.8774977219988157e-04 -4.1438810433454981e-04 -4.4356392076624798e-04 -4.7558209412736882e-04 -5.1079194284709090e-04 -5.4959485247080666e-04 -5.9245339816338177e-04 -6.3990230155035015e-04 -6.9256163623920440e-04 -7.5115279989773002e-04 -8.1651790212855578e-04 -8.8964338289758220e-04 -9.7168888859458600e-04 -1.0640227039615960e-03 -1.1682653805651611e-03 -1.2863436402578061e-03 -1.4205571885839545e-03 -1.5736617696219030e-03 -1.7489726654376586e-03 -1.9504939137399094e-03 -2.1830797885265731e-03 -2.4526365412055472e-03 -2.7663739139811090e-03 -3.1331172188025355e-03 -3.5636911984366026e-03 -4.0713850942528627e-03 -4.6725015178757092e-03 -5.3869736720022886e-03 -6.2389915012351152e-03 -7.2574695801950603e-03 -8.4759131126786579e-03 -9.9304955102509068e-03 -1.1653118701898653e-02 -1.3650680152855350e-02 -1.5847416948798366e-02 -1.7933191433327042e-02 -1.8990910484279588e-02 -1.6667371630518502e-02 -5.5822474984199375e-03 2.5047096871385576e-02 9.3319280431620341e-02 2.2235760297823617e-01 4.2879358820233288e-01 7.0316726576154087e-01 1.0000000000000000e+00 0.0000000000000000e+00 -2.2535383155364489e-05 -3.3528869600986029e-05 -3.8949291276185655e-05 -4.1424103423702858e-05 -4.2509469240121073e-05 -4.3008917138009498e-05 -4.3292258857132234e-05 -4.3513959328508933e-05 -4.3733518671492233e-05 -4.3972463979266098e-05 -4.4238352255551936e-05 -4.4533970665336203e-05 -4.4860598964003450e-05 -4.5219094328349821e-05 -4.5610234509861703e-05 -4.6034823485207880e-05 -4.6493724851609355e-05 -4.6987874165874367e-05 -4.7518285399645189e-05 -4.8086055865108336e-05 -4.8692370863004417e-05 -4.9338508471868683e-05 -5.0025844678000779e-05 -5.0755858947477975e-05 -5.1530140266478902e-05 -5.2350393658289429e-05 -5.3218447235384670e-05 -5.4136259897086990e-05 -5.5105929768587887e-05 -5.6129703410675217e-05 -5.7209985802995869e-05 -5.8349351159863632e-05 -5.9550554713513219e-05 -6.0816545600509171e-05 -6.2150480923842043e-05 -6.3555741041881704e-05 -6.5035946208745420e-05 -6.6594974773111031e-05 -6.8236983126524704e-05 -6.9966427511556592e-05 -7.1788087798527994e-05 -7.3707093461073317e-05 -7.5728952089543819e-05 -7.7859580750514723e-05 -8.0105340412011330e-05 -8.2473073689579661e-05 -8.4970146333173045e-05 -8.7604492974749343e-05 -9.0384667600459107e-05 -9.3319899174462432e-05 -9.6420152999355835e-05 -9.9696198624693857e-05 -1.0315968516357108e-04 -1.0682322479554802e-04 -1.1070048532599709e-04 -1.1480629300170037e-04 -1.1915674703994150e-04 -1.2376934734310247e-04 -1.2866313693662049e-04 -1.3385886106282309e-04 -1.3937914534013158e-04 -1.4524869559942352e-04 -1.5149452215293792e-04 -1.5814619180278398e-04 -1.6523611172354982e-04 -1.7279984992503669e-04 -1.8087649740156881e-04 -1.8950907794102864e-04 -1.9874501292939975e-04 -2.0863664970787376e-04 -2.1924186310022620e-04 -2.3062474137307368e-04 -2.4285637024244221e-04 -2.5601573097625062e-04 -2.7019073125384216e-04 -2.8547939093515919e-04 -3.0199120913628586e-04 -3.1984874371154544e-04 -3.3918944032725626e-04 -3.6016775622480543e-04 -3.8295763235000473e-04 -4.0775537728836102e-04 -4.3478304013561163e-04 -4.6429236680833533e-04 -4.9656945303631027e-04 -5.3194023011947106e-04 -5.7077695082314792e-04 -6.1350588058319444e-04 -6.6061644269073730e-04 -7.1267212210387228e-04 -7.7032350415055643e-04 -8.3432390984315220e-04 -9.055481948